BEGIN_INFO
  # Launch as: xcrysden --bxsf ebands3d.bxsf
  Fermi Energy:     5.852696
END_INFO

BEGIN_BLOCK_BANDGRID_3D
  band_energies
  BANDGRID_3D_BANDS
    6
       42   42   24
          0.00000000      0.00000000      0.00000000
          0.26735725      0.15435878      0.00000000
          0.00000000      0.30871756      0.00000000
          0.00000000      0.00000000      0.18989819
    BAND:     8
      5.64379200e+00  5.64556100e+00  5.65076200e+00  5.65908500e+00  5.67002600e+00  5.68290200e+00  5.69688700e+00  5.71105100e+00  5.72441200e+00  5.73601800e+00  5.74500600e+00  5.78261200e+00  5.89092400e+00  5.78261200e+00  5.74500600e+00  5.73601800e+00  5.72441200e+00  5.71105100e+00  5.69688700e+00  5.68290200e+00  5.67002600e+00  5.65908500e+00  5.65076200e+00  5.64556100e+00
      5.64186100e+00  5.64387200e+00  5.64948600e+00  5.65834600e+00  5.66988800e+00  5.68336000e+00  5.69787200e+00  5.71247500e+00  5.72630200e+00  5.73892900e+00  5.75249600e+00  5.80587100e+00  5.88957300e+00  5.80415600e+00  5.75213800e+00  5.73845300e+00  5.72563200e+00  5.71164000e+00  5.69693200e+00  5.68239500e+00  5.66898200e+00  5.65758200e+00  5.64893300e+00  5.64358200e+00
      5.63709900e+00  5.64036000e+00  5.64761600e+00  5.65832500e+00  5.67171300e+00  5.68682200e+00  5.70260500e+00  5.71809400e+00  5.73275200e+00  5.74758500e+00  5.77071100e+00  5.83378500e+00  5.88778100e+00  5.82449000e+00  5.76639600e+00  5.74394700e+00  5.72794700e+00  5.71210700e+00  5.69579100e+00  5.67970300e+00  5.66491400e+00  5.65249600e+00  5.64334800e+00  5.63810400e+00
      5.63221900e+00  5.63815800e+00  5.64839000e+00  5.66206300e+00  5.67811600e+00  5.69534100e+00  5.71252400e+00  5.72871400e+00  5.74387800e+00  5.76116100e+00  5.79433400e+00  5.85645300e+00  5.88592400e+00  5.83361600e+00  5.77813500e+00  5.74953500e+00  5.72994200e+00  5.71149900e+00  5.69270600e+00  5.67428700e+00  5.65766600e+00  5.64428000e+00  5.63523400e+00  5.63116000e+00
      5.63018300e+00  5.63986100e+00  5.65381300e+00  5.67089900e+00  5.68980200e+00  5.70909600e+00  5.72741500e+00  5.74383600e+00  5.75894900e+00  5.77871100e+00  5.82001200e+00  5.87253900e+00  5.87947200e+00  5.83063600e+00  5.78164800e+00  5.75218900e+00  5.73077400e+00  5.70995700e+00  5.68820200e+00  5.66692400e+00  5.64845900e+00  5.63482400e+00  5.62715300e+00  5.62571600e+00
      5.63247100e+00  5.64624400e+00  5.66405700e+00  5.68455400e+00  5.70619000e+00  5.72731800e+00  5.74639400e+00  5.76251300e+00  5.77700200e+00  5.79922600e+00  5.84358800e+00  5.87664700e+00  5.85903100e+00  5.81010800e+00  5.77068800e+00  5.74717000e+00  5.72883000e+00  5.70792200e+00  5.68350400e+00  5.65914400e+00  5.63926500e+00  5.62657300e+00  5.62164500e+00  5.62392000e+00
      5.63897500e+00  5.65683700e+00  5.67845100e+00  5.70225700e+00  5.72646400e+00  5.74914900e+00  5.76854200e+00  5.78374000e+00  5.79693800e+00  5.82047100e+00  5.85597200e+00  5.85505500e+00  5.81188300e+00  5.76648100e+00  5.73811100e+00  5.72520400e+00  5.71857600e+00  5.70462100e+00  5.67987900e+00  5.65251500e+00  5.63183200e+00  5.62119700e+00  5.61984100e+00  5.62622100e+00
      5.64897100e+00  5.67088900e+00  5.69626400e+00  5.72330200e+00  5.74990900e+00  5.77381000e+00  5.79294100e+00  5.80638000e+00  5.81711800e+00  5.83530500e+00  5.83808900e+00  5.80019200e+00  5.75838600e+00  5.72511400e+00  5.69851200e+00  5.68217700e+00  5.68475000e+00  5.69318900e+00  5.67781400e+00  5.64801300e+00  5.62679300e+00  5.61891000e+00  5.62146700e+00  5.63202900e+00
      5.66168300e+00  5.68771500e+00  5.71687000e+00  5.74708100e+00  5.77586500e+00  5.80049000e+00  5.81849900e+00  5.82887900e+00  5.83397200e+00  5.82939500e+00  5.80163000e+00  5.76925600e+00  5.73730400e+00  5.70591300e+00  5.67616000e+00  5.64973600e+00  5.63071200e+00  5.63846300e+00  5.67156700e+00  5.64532900e+00  5.62305800e+00  5.61870100e+00  5.62556000e+00  5.64046700e+00
      5.67624500e+00  5.70659400e+00  5.73961300e+00  5.77291100e+00  5.80350700e+00  5.82805600e+00  5.84356800e+00  5.84850300e+00  5.84080900e+00  5.81931100e+00  5.79141000e+00  5.75988500e+00  5.72669900e+00  5.69366900e+00  5.66215900e+00  5.63289900e+00  5.60545000e+00  5.57570000e+00  5.52502100e+00  5.58877400e+00  5.61164300e+00  5.61738000e+00  5.63039700e+00  5.65038400e+00
      5.69080900e+00  5.72612800e+00  5.76321900e+00  5.79941100e+00  5.83106900e+00  5.85394600e+00  5.86383600e+00  5.85837300e+00  5.84292900e+00  5.81762400e+00  5.78580000e+00  5.75087000e+00  5.71537500e+00  5.68110800e+00  5.64920700e+00  5.62007000e+00  5.59274700e+00  5.56251100e+00  5.51665600e+00  5.48371000e+00  5.53395600e+00  5.59457400e+00  5.62948300e+00  5.65878000e+00
      5.69433200e+00  5.73858200e+00  5.78037700e+00  5.81692900e+00  5.83790100e+00  5.81731600e+00  5.80146000e+00  5.86115200e+00  5.84410800e+00  5.81196100e+00  5.77521700e+00  5.73731300e+00  5.70044300e+00  5.66604500e+00  5.63496600e+00  5.60740800e+00  5.58240500e+00  5.55590000e+00  5.51655100e+00  5.46662700e+00  5.46406200e+00  5.51626400e+00  5.58461100e+00  5.64522300e+00
      5.63175100e+00  5.68393100e+00  5.71843400e+00  5.72582500e+00  5.70244100e+00  5.68011200e+00  5.75983200e+00  5.86753500e+00  5.83641500e+00  5.79786000e+00  5.75759600e+00  5.71821700e+00  5.68135700e+00  5.64805700e+00  5.61890000e+00  5.59394300e+00  5.57227300e+00  5.55044100e+00  5.51803100e+00  5.46500800e+00  5.42995700e+00  5.44877800e+00  5.50335400e+00  5.56898400e+00
      5.54359200e+00  5.58611400e+00  5.60626900e+00  5.59711700e+00  5.57252900e+00  5.60883500e+00  5.78670600e+00  5.85742500e+00  5.81748400e+00  5.77501900e+00  5.73331000e+00  5.69415700e+00  5.65868900e+00  5.62761900e+00  5.60132100e+00  5.57974800e+00  5.56206200e+00  5.54529400e+00  5.52015600e+00  5.47028000e+00  5.41595500e+00  5.40431200e+00  5.43657900e+00  5.48939300e+00
      5.46846600e+00  5.49939200e+00  5.50489600e+00  5.48415700e+00  5.48108500e+00  5.59854600e+00  5.83017900e+00  5.83243400e+00  5.78879000e+00  5.74516200e+00  5.70400700e+00  5.66658500e+00  5.63367000e+00  5.60574400e+00  5.58303200e+00  5.56542700e+00  5.55214600e+00  5.54059400e+00  5.52260500e+00  5.47935600e+00  5.41508000e+00  5.37829900e+00  5.38757700e+00  5.42527200e+00
      5.40798900e+00  5.42591500e+00  5.41535200e+00  5.39048400e+00  5.43519600e+00  5.61921900e+00  5.82167900e+00  5.79708100e+00  5.75340900e+00  5.71091700e+00  5.67189900e+00  5.63735600e+00  5.60785300e+00  5.58372900e+00  5.56511200e+00  5.55186100e+00  5.54322500e+00  5.53687600e+00  5.52556300e+00  5.49023600e+00  5.42307200e+00  5.36730400e+00  5.35463800e+00  5.37651700e+00
      5.36194300e+00  5.36482000e+00  5.33712600e+00  5.32416800e+00  5.43140600e+00  5.63983800e+00  5.78044000e+00  5.75575500e+00  5.71473000e+00  5.67502500e+00  5.63925100e+00  5.60836700e+00  5.58284600e+00  5.56294800e+00  5.54874600e+00  5.54006100e+00  5.53616100e+00  5.53487100e+00  5.52955500e+00  5.50177900e+00  5.43632700e+00  5.36819400e+00  5.33638600e+00  5.34263800e+00
      5.33165600e+00  5.31715800e+00  5.27491800e+00  5.29909500e+00  5.45239800e+00  5.64059900e+00  5.73274200e+00  5.71258300e+00  5.67581300e+00  5.63993200e+00  5.60809800e+00  5.58135300e+00  5.56015800e+00  5.54472500e+00  5.53509500e+00  5.53105600e+00  5.53186200e+00  5.53538500e+00  5.53525600e+00  5.51355600e+00  5.45168900e+00  5.37734300e+00  5.33121900e+00  5.32391300e+00
      5.32141100e+00  5.28904600e+00  5.24502900e+00  5.31837500e+00  5.47669900e+00  5.62446800e+00  5.68702500e+00  5.67116100e+00  5.63919100e+00  5.60764600e+00  5.58012200e+00  5.55777700e+00  5.54108500e+00  5.53022900e+00  5.52522500e+00  5.52581800e+00  5.53122000e+00  5.53923500e+00  5.54336900e+00  5.52558000e+00  5.46669300e+00  5.39052900e+00  5.33641400e+00  5.32101400e+00
      5.33974800e+00  5.29592300e+00  5.26749100e+00  5.35905500e+00  5.49192900e+00  5.60317700e+00  5.64740700e+00  5.63418000e+00  5.60677900e+00  5.57969700e+00  5.55663000e+00  5.53879800e+00  5.52667800e+00  5.52043300e+00  5.52004200e+00  5.52520700e+00  5.53505800e+00  5.54721500e+00  5.55460200e+00  5.53806200e+00  5.47964200e+00  5.40333700e+00  5.34725300e+00  5.33387100e+00
      5.39208900e+00  5.34167900e+00  5.31830800e+00  5.39310400e+00  5.49721300e+00  5.58320600e+00  5.61505800e+00  5.60315400e+00  5.57982200e+00  5.55712400e+00  5.53853700e+00  5.52524900e+00  5.51771600e+00  5.51607400e+00  5.52026400e+00  5.52993100e+00  5.54409900e+00  5.56008000e+00  5.56969300e+00  5.55136300e+00  5.48952000e+00  5.41133500e+00  5.35605000e+00  5.35753700e+00
      5.43534300e+00  5.37141300e+00  5.35078400e+00  5.40970600e+00  5.49568800e+00  5.56611100e+00  5.58950200e+00  5.57853400e+00  5.55891300e+00  5.54049400e+00  5.52636600e+00  5.51762100e+00  5.51467400e+00  5.51762100e+00  5.52636600e+00  5.54049400e+00  5.55891300e+00  5.57853400e+00  5.58950200e+00  5.56611100e+00  5.49568800e+00  5.40970600e+00  5.35078400e+00  5.37141300e+00
      5.39208900e+00  5.35753700e+00  5.35605000e+00  5.41133500e+00  5.48952000e+00  5.55136300e+00  5.56969300e+00  5.56008000e+00  5.54409900e+00  5.52993100e+00  5.52026400e+00  5.51607400e+00  5.51771600e+00  5.52524900e+00  5.53853700e+00  5.55712400e+00  5.57982200e+00  5.60315400e+00  5.61505800e+00  5.58320600e+00  5.49721300e+00  5.39310400e+00  5.31830800e+00  5.34167900e+00
      5.33974800e+00  5.33387100e+00  5.34725300e+00  5.40333700e+00  5.47964200e+00  5.53806200e+00  5.55460200e+00  5.54721500e+00  5.53505800e+00  5.52520700e+00  5.52004200e+00  5.52043300e+00  5.52667800e+00  5.53879800e+00  5.55663000e+00  5.57969700e+00  5.60677900e+00  5.63418000e+00  5.64740700e+00  5.60317700e+00  5.49192900e+00  5.35905500e+00  5.26749100e+00  5.29592300e+00
      5.32141100e+00  5.32101400e+00  5.33641400e+00  5.39052900e+00  5.46669300e+00  5.52558000e+00  5.54336900e+00  5.53923500e+00  5.53122000e+00  5.52581800e+00  5.52522500e+00  5.53022900e+00  5.54108500e+00  5.55777700e+00  5.58012200e+00  5.60764600e+00  5.63919100e+00  5.67116100e+00  5.68702500e+00  5.62446800e+00  5.47669900e+00  5.31837500e+00  5.24502900e+00  5.28904600e+00
      5.33165600e+00  5.32391300e+00  5.33121900e+00  5.37734300e+00  5.45168900e+00  5.51355600e+00  5.53525600e+00  5.53538500e+00  5.53186200e+00  5.53105600e+00  5.53509500e+00  5.54472500e+00  5.56015800e+00  5.58135300e+00  5.60809800e+00  5.63993200e+00  5.67581300e+00  5.71258300e+00  5.73274200e+00  5.64059900e+00  5.45239800e+00  5.29909500e+00  5.27491800e+00  5.31715800e+00
      5.36194300e+00  5.34263800e+00  5.33638600e+00  5.36819400e+00  5.43632700e+00  5.50177900e+00  5.52955500e+00  5.53487100e+00  5.53616100e+00  5.54006100e+00  5.54874600e+00  5.56294800e+00  5.58284600e+00  5.60836700e+00  5.63925100e+00  5.67502500e+00  5.71473000e+00  5.75575500e+00  5.78044000e+00  5.63983800e+00  5.43140600e+00  5.32416800e+00  5.33712600e+00  5.36482000e+00
      5.40798900e+00  5.37651700e+00  5.35463800e+00  5.36730400e+00  5.42307200e+00  5.49023600e+00  5.52556300e+00  5.53687600e+00  5.54322500e+00  5.55186100e+00  5.56511200e+00  5.58372900e+00  5.60785300e+00  5.63735600e+00  5.67189900e+00  5.71091700e+00  5.75340900e+00  5.79708100e+00  5.82167900e+00  5.61921900e+00  5.43519600e+00  5.39048400e+00  5.41535200e+00  5.42591500e+00
      5.46846600e+00  5.42527200e+00  5.38757700e+00  5.37829900e+00  5.41508000e+00  5.47935600e+00  5.52260500e+00  5.54059400e+00  5.55214600e+00  5.56542700e+00  5.58303200e+00  5.60574400e+00  5.63367000e+00  5.66658500e+00  5.70400700e+00  5.74516200e+00  5.78879000e+00  5.83243400e+00  5.83017900e+00  5.59854600e+00  5.48108500e+00  5.48415700e+00  5.50489600e+00  5.49939200e+00
      5.54359200e+00  5.48939300e+00  5.43657900e+00  5.40431200e+00  5.41595500e+00  5.47028000e+00  5.52015600e+00  5.54529400e+00  5.56206200e+00  5.57974800e+00  5.60132100e+00  5.62761900e+00  5.65868900e+00  5.69415700e+00  5.73331000e+00  5.77501900e+00  5.81748400e+00  5.85742500e+00  5.78670600e+00  5.60883500e+00  5.57252900e+00  5.59711700e+00  5.60626900e+00  5.58611400e+00
      5.63175100e+00  5.56898400e+00  5.50335400e+00  5.44877800e+00  5.42995700e+00  5.46500800e+00  5.51803100e+00  5.55044100e+00  5.57227300e+00  5.59394300e+00  5.61890000e+00  5.64805700e+00  5.68135700e+00  5.71821700e+00  5.75759600e+00  5.79786000e+00  5.83641500e+00  5.86753500e+00  5.75983200e+00  5.68011200e+00  5.70244100e+00  5.72582500e+00  5.71843400e+00  5.68393100e+00
      5.69433200e+00  5.64522300e+00  5.58461100e+00  5.51626400e+00  5.46406200e+00  5.46662700e+00  5.51655100e+00  5.55590000e+00  5.58240500e+00  5.60740800e+00  5.63496600e+00  5.66604500e+00  5.70044300e+00  5.73731300e+00  5.77521700e+00  5.81196100e+00  5.84410800e+00  5.86115200e+00  5.80146000e+00  5.81731600e+00  5.83790100e+00  5.81692900e+00  5.78037700e+00  5.73858200e+00
      5.69080900e+00  5.65878000e+00  5.62948300e+00  5.59457400e+00  5.53395600e+00  5.48371000e+00  5.51665600e+00  5.56251100e+00  5.59274700e+00  5.62007000e+00  5.64920700e+00  5.68110800e+00  5.71537500e+00  5.75087000e+00  5.78580000e+00  5.81762400e+00  5.84292900e+00  5.85837300e+00  5.86383600e+00  5.85394600e+00  5.83106900e+00  5.79941100e+00  5.76321900e+00  5.72612800e+00
      5.67624500e+00  5.65038400e+00  5.63039700e+00  5.61738000e+00  5.61164300e+00  5.58877400e+00  5.52502100e+00  5.57570000e+00  5.60545000e+00  5.63289900e+00  5.66215900e+00  5.69366900e+00  5.72669900e+00  5.75988500e+00  5.79141000e+00  5.81931100e+00  5.84080900e+00  5.84850300e+00  5.84356800e+00  5.82805600e+00  5.80350700e+00  5.77291100e+00  5.73961300e+00  5.70659400e+00
      5.66168300e+00  5.64046700e+00  5.62556000e+00  5.61870100e+00  5.62305800e+00  5.64532900e+00  5.67156700e+00  5.63846300e+00  5.63071200e+00  5.64973600e+00  5.67616000e+00  5.70591300e+00  5.73730400e+00  5.76925600e+00  5.80163000e+00  5.82939500e+00  5.83397200e+00  5.82887900e+00  5.81849900e+00  5.80049000e+00  5.77586500e+00  5.74708100e+00  5.71687000e+00  5.68771500e+00
      5.64897100e+00  5.63202900e+00  5.62146700e+00  5.61891000e+00  5.62679300e+00  5.64801300e+00  5.67781400e+00  5.69318900e+00  5.68475000e+00  5.68217700e+00  5.69851200e+00  5.72511400e+00  5.75838600e+00  5.80019200e+00  5.83808900e+00  5.83530500e+00  5.81711800e+00  5.80638000e+00  5.79294100e+00  5.77381000e+00  5.74990900e+00  5.72330200e+00  5.69626400e+00  5.67088900e+00
      5.63897500e+00  5.62622100e+00  5.61984100e+00  5.62119700e+00  5.63183200e+00  5.65251500e+00  5.67987900e+00  5.70462100e+00  5.71857600e+00  5.72520400e+00  5.73811100e+00  5.76648100e+00  5.81188300e+00  5.85505500e+00  5.85597200e+00  5.82047100e+00  5.79693800e+00  5.78374000e+00  5.76854200e+00  5.74914900e+00  5.72646400e+00  5.70225700e+00  5.67845100e+00  5.65683700e+00
      5.63247100e+00  5.62392000e+00  5.62164500e+00  5.62657300e+00  5.63926500e+00  5.65914400e+00  5.68350400e+00  5.70792200e+00  5.72883000e+00  5.74717000e+00  5.77068800e+00  5.81010800e+00  5.85903100e+00  5.87664700e+00  5.84358800e+00  5.79922600e+00  5.77700200e+00  5.76251300e+00  5.74639400e+00  5.72731800e+00  5.70619000e+00  5.68455400e+00  5.66405700e+00  5.64624400e+00
      5.63018300e+00  5.62571600e+00  5.62715300e+00  5.63482400e+00  5.64845900e+00  5.66692400e+00  5.68820200e+00  5.70995700e+00  5.73077400e+00  5.75218900e+00  5.78164800e+00  5.83063600e+00  5.87947200e+00  5.87253900e+00  5.82001200e+00  5.77871100e+00  5.75894900e+00  5.74383600e+00  5.72741500e+00  5.70909600e+00  5.68980200e+00  5.67089900e+00  5.65381300e+00  5.63986100e+00
      5.63221900e+00  5.63116000e+00  5.63523400e+00  5.64428000e+00  5.65766600e+00  5.67428700e+00  5.69270600e+00  5.71149900e+00  5.72994200e+00  5.74953500e+00  5.77813500e+00  5.83361600e+00  5.88592400e+00  5.85645300e+00  5.79433400e+00  5.76116100e+00  5.74387800e+00  5.72871400e+00  5.71252400e+00  5.69534100e+00  5.67811600e+00  5.66206300e+00  5.64839000e+00  5.63815800e+00
      5.63709900e+00  5.63810400e+00  5.64334800e+00  5.65249600e+00  5.66491400e+00  5.67970300e+00  5.69579100e+00  5.71210700e+00  5.72794700e+00  5.74394700e+00  5.76639600e+00  5.82449000e+00  5.88778100e+00  5.83378500e+00  5.77071100e+00  5.74758500e+00  5.73275200e+00  5.71809400e+00  5.70260500e+00  5.68682200e+00  5.67171300e+00  5.65832500e+00  5.64761600e+00  5.64036000e+00
      5.64186100e+00  5.64358200e+00  5.64893300e+00  5.65758200e+00  5.66898200e+00  5.68239500e+00  5.69693200e+00  5.71164000e+00  5.72563200e+00  5.73845300e+00  5.75213800e+00  5.80415600e+00  5.88957300e+00  5.80587100e+00  5.75249600e+00  5.73892900e+00  5.72630200e+00  5.71247500e+00  5.69787200e+00  5.68336000e+00  5.66988800e+00  5.65834600e+00  5.64948600e+00  5.64387200e+00
      5.64186100e+00  5.64358200e+00  5.64893300e+00  5.65758200e+00  5.66898200e+00  5.68239500e+00  5.69693200e+00  5.71164000e+00  5.72563200e+00  5.73845300e+00  5.75213800e+00  5.80415600e+00  5.88957300e+00  5.80587100e+00  5.75249600e+00  5.73892900e+00  5.72630200e+00  5.71247500e+00  5.69787200e+00  5.68336000e+00  5.66988800e+00  5.65834600e+00  5.64948600e+00  5.64387200e+00
      5.63851000e+00  5.64056400e+00  5.64658600e+00  5.65616200e+00  5.66862700e+00  5.68310500e+00  5.69859300e+00  5.71409500e+00  5.72892200e+00  5.74352400e+00  5.76381300e+00  5.82351300e+00  5.88826700e+00  5.82351300e+00  5.76381300e+00  5.74352400e+00  5.72892200e+00  5.71409500e+00  5.69859300e+00  5.68310500e+00  5.66862700e+00  5.65616200e+00  5.64658600e+00  5.64056400e+00
      5.63365900e+00  5.63737900e+00  5.64550300e+00  5.65736600e+00  5.67203600e+00  5.68838500e+00  5.70522400e+00  5.72153500e+00  5.73702900e+00  5.75385300e+00  5.78300300e+00  5.84539200e+00  5.88734800e+00  5.83601300e+00  5.77712200e+00  5.74947200e+00  5.73156900e+00  5.71476300e+00  5.69746600e+00  5.68019600e+00  5.66412200e+00  5.65050500e+00  5.64043400e+00  5.63468300e+00
      5.63015100e+00  5.63697500e+00  5.64840400e+00  5.66344100e+00  5.68085400e+00  5.69926300e+00  5.71730000e+00  5.73395400e+00  5.74949200e+00  5.76850400e+00  5.80628100e+00  5.86405800e+00  5.88489500e+00  5.83904000e+00  5.78522900e+00  5.75389800e+00  5.73311300e+00  5.71399800e+00  5.69429600e+00  5.67467600e+00  5.65680400e+00  5.64239900e+00  5.63277000e+00  5.62863800e+00
      5.63014500e+00  5.64091300e+00  5.65616500e+00  5.67463000e+00  5.69482300e+00  5.71512800e+00  5.73398900e+00  5.75039200e+00  5.76527400e+00  5.78652300e+00  5.83051500e+00  5.87575300e+00  5.87496900e+00  5.82946100e+00  5.78291600e+00  5.75337500e+00  5.73255200e+00  5.71210200e+00  5.68986900e+00  5.66756200e+00  5.64807200e+00  5.63379400e+00  5.62599100e+00  5.62490900e+00
      5.63419700e+00  5.64915300e+00  5.66831500e+00  5.69018500e+00  5.71303500e+00  5.73497300e+00  5.75420100e+00  5.76966300e+00  5.78312900e+00  5.80655900e+00  5.85025800e+00  5.87239200e+00  5.84765400e+00  5.80111700e+00  5.76342100e+00  5.74148900e+00  5.72696800e+00  5.70912200e+00  5.68537900e+00  5.66028900e+00  5.63962400e+00  5.62662100e+00  5.62187100e+00  5.62472800e+00
      5.64182800e+00  5.66100400e+00  5.68406700e+00  5.70929300e+00  5.73464900e+00  5.75788800e+00  5.77686600e+00  5.79041800e+00  5.80137900e+00  5.82514200e+00  5.85399200e+00  5.84181900e+00  5.80007400e+00  5.75826800e+00  5.72641500e+00  5.70895000e+00  5.70687000e+00  5.70236100e+00  5.68180300e+00  5.65412100e+00  5.63263500e+00  5.62185000e+00  5.62086400e+00  5.62800100e+00
      5.65230200e+00  5.67575400e+00  5.70275300e+00  5.73130000e+00  5.75896100e+00  5.78297800e+00  5.80067600e+00  5.81065100e+00  5.81713700e+00  5.83342400e+00  5.83071500e+00  5.79936700e+00  5.76246900e+00  5.72712200e+00  5.69496800e+00  5.66871100e+00  5.65762300e+00  5.67506100e+00  5.67829200e+00  5.64968600e+00  5.62711300e+00  5.61923200e+00  5.62244200e+00  5.63403700e+00
      5.66481100e+00  5.69272200e+00  5.72376600e+00  5.75558800e+00  5.78518400e+00  5.80897200e+00  5.82328100e+00  5.82626800e+00  5.82634200e+00  5.82807200e+00  5.80861300e+00  5.77774200e+00  5.74346400e+00  5.70887500e+00  5.67569900e+00  5.64503600e+00  5.61754500e+00  5.59550600e+00  5.62382500e+00  5.64376400e+00  5.61998700e+00  5.61701500e+00  5.62535700e+00  5.64184800e+00
      5.67806100e+00  5.71092600e+00  5.74625400e+00  5.78123600e+00  5.81187700e+00  5.83273700e+00  5.83721900e+00  5.82785700e+00  5.83321100e+00  5.82480800e+00  5.79837000e+00  5.76479500e+00  5.72901900e+00  5.69363400e+00  5.66014100e+00  5.62916100e+00  5.59992000e+00  5.56763700e+00  5.51753200e+00  5.50955600e+00  5.57717200e+00  5.60687800e+00  5.62620800e+00  5.64951800e+00
      5.68731500e+00  5.72708000e+00  5.76741400e+00  5.80486600e+00  5.83181600e+00  5.83104700e+00  5.80173400e+00  5.82263300e+00  5.84133100e+00  5.82059200e+00  5.78744800e+00  5.75034500e+00  5.71290600e+00  5.67715900e+00  5.64425500e+00  5.61457300e+00  5.58723500e+00  5.55806500e+00  5.51553000e+00  5.46988600e+00  5.48766700e+00  5.54922100e+00  5.60619000e+00  5.64861200e+00
      5.65935800e+00  5.71213800e+00  5.75423500e+00  5.77299400e+00  5.75375000e+00  5.71499500e+00  5.73894400e+00  5.83978900e+00  5.84090400e+00  5.80919600e+00  5.77079700e+00  5.73128300e+00  5.69324100e+00  5.65814300e+00  5.62680500e+00  5.59942600e+00  5.57517500e+00  5.55056500e+00  5.51527400e+00  5.46338400e+00  5.44024300e+00  5.47252100e+00  5.53328900e+00  5.59890900e+00
      5.57387100e+00  5.62048400e+00  5.64643900e+00  5.64250800e+00  5.61393000e+00  5.61595700e+00  5.74231000e+00  5.85066000e+00  5.82792700e+00  5.78890500e+00  5.74749200e+00  5.70726500e+00  5.66997900e+00  5.63663600e+00  5.60778200e+00  5.58348100e+00  5.56296100e+00  5.54328200e+00  5.51534900e+00  5.46539200e+00  5.41891300e+00  5.41906400e+00  5.45962600e+00  5.51670400e+00
      5.49253400e+00  5.52745400e+00  5.53873700e+00  5.52199500e+00  5.50538900e+00  5.58197000e+00  5.77726200e+00  5.83923500e+00  5.80336600e+00  5.76069400e+00  5.71858200e+00  5.67931800e+00  5.64405200e+00  5.61344600e+00  5.58784400e+00  5.56721500e+00  5.55083800e+00  5.53618600e+00  5.51536900e+00  5.47152700e+00  5.41280200e+00  5.38606000e+00  5.40373700e+00  5.44617300e+00
      5.42581300e+00  5.44804300e+00  5.44413400e+00  5.42013600e+00  5.43961600e+00  5.59137900e+00  5.80031200e+00  5.81125900e+00  5.77017600e+00  5.72691900e+00  5.68606600e+00  5.64914000e+00  5.61690100e+00  5.58979200e+00  5.56801500e+00  5.55147800e+00  5.53949000e+00  5.52981100e+00  5.51556300e+00  5.47951400e+00  5.41665900e+00  5.36927400e+00  5.36468300e+00  5.39132600e+00
      5.37365500e+00  5.38163200e+00  5.36147900e+00  5.34142000e+00  5.41811000e+00  5.61439900e+00  5.78553700e+00  5.77322600e+00  5.73183700e+00  5.69032100e+00  5.65219700e+00  5.61861500e+00  5.59013100e+00  5.56705100e+00  5.54948900e+00  5.53730300e+00  5.52981100e+00  5.52495000e+00  5.51654800e+00  5.48814700e+00  5.42663300e+00  5.36540300e+00  5.34085400e+00  5.35158300e+00
      5.33649200e+00  5.32806200e+00  5.29218900e+00  5.29679100e+00  5.42974400e+00  5.62662400e+00  5.74646000e+00  5.73002600e+00  5.69157400e+00  5.65344600e+00  5.61907300e+00  5.58952700e+00  5.56528600e+00  5.54658400e+00  5.53347800e+00  5.52577900e+00  5.52278600e+00  5.52250100e+00  5.51912700e+00  5.49708100e+00  5.43952300e+00  5.37100000e+00  5.33074500e+00  5.32684600e+00
      5.31694400e+00  5.29044600e+00  5.24585600e+00  5.29667900e+00  5.45432800e+00  5.61936700e+00  5.69989200e+00  5.68579500e+00  5.65213500e+00  5.61843600e+00  5.58847400e+00  5.56341000e+00  5.54372400e+00  5.52961800e+00  5.52110700e+00  5.51795100e+00  5.51939900e+00  5.52339500e+00  5.52416100e+00  5.50651800e+00  5.45288400e+00  5.38212900e+00  5.33213900e+00  5.31759700e+00
      5.32137900e+00  5.27958700e+00  5.24388000e+00  5.33093300e+00  5.47467400e+00  5.60027800e+00  5.65536200e+00  5.64413900e+00  5.61579000e+00  5.58700900e+00  5.56181900e+00  5.54150100e+00  5.52656000e+00  5.51718400e+00  5.51335000e+00  5.51476000e+00  5.52057300e+00  5.52854900e+00  5.53251300e+00  5.51690200e+00  5.46510500e+00  5.39461700e+00  5.34129300e+00  5.32425300e+00
      5.35881200e+00  5.31149600e+00  5.28890200e+00  5.37118200e+00  5.48471100e+00  5.57872800e+00  5.61718500e+00  5.60771700e+00  5.58429000e+00  5.56047700e+00  5.54018300e+00  5.52473300e+00  5.51464100e+00  5.51007900e+00  5.51098400e+00  5.51699100e+00  5.52712800e+00  5.53883900e+00  5.54505600e+00  5.52874800e+00  5.47521300e+00  5.40434300e+00  5.35212200e+00  5.34483500e+00
      5.41825600e+00  5.36068700e+00  5.33589700e+00  5.39748900e+00  5.48632100e+00  5.55917400e+00  5.58644400e+00  5.57792100e+00  5.55876800e+00  5.53972600e+00  5.52429700e+00  5.51373700e+00  5.50853800e+00  5.50884200e+00  5.51454600e+00  5.52521400e+00  5.53972400e+00  5.55507500e+00  5.56270900e+00  5.54263000e+00  5.48256600e+00  5.40698500e+00  5.35492600e+00  5.36772600e+00
      5.41825600e+00  5.36772600e+00  5.35492600e+00  5.40698500e+00  5.48256600e+00  5.54263000e+00  5.56270900e+00  5.55507500e+00  5.53972400e+00  5.52521400e+00  5.51454600e+00  5.50884200e+00  5.50853800e+00  5.51373700e+00  5.52429700e+00  5.53972600e+00  5.55876800e+00  5.57792100e+00  5.58644400e+00  5.55917400e+00  5.48632100e+00  5.39748900e+00  5.33589700e+00  5.36068700e+00
      5.35881200e+00  5.34483500e+00  5.35212200e+00  5.40434300e+00  5.47521300e+00  5.52874800e+00  5.54505600e+00  5.53883900e+00  5.52712800e+00  5.51699100e+00  5.51098400e+00  5.51007900e+00  5.51464100e+00  5.52473300e+00  5.54018300e+00  5.56047700e+00  5.58429000e+00  5.60771700e+00  5.61718500e+00  5.57872800e+00  5.48471100e+00  5.37118200e+00  5.28890200e+00  5.31149600e+00
      5.32137900e+00  5.32425300e+00  5.34129300e+00  5.39461700e+00  5.46510500e+00  5.51690200e+00  5.53251300e+00  5.52854900e+00  5.52057300e+00  5.51476000e+00  5.51335000e+00  5.51718400e+00  5.52656000e+00  5.54150100e+00  5.56181900e+00  5.58700900e+00  5.61579000e+00  5.64413900e+00  5.65536200e+00  5.60027800e+00  5.47467400e+00  5.33093300e+00  5.24388000e+00  5.27958700e+00
      5.31694400e+00  5.31759700e+00  5.33213900e+00  5.38212900e+00  5.45288400e+00  5.50651800e+00  5.52416100e+00  5.52339500e+00  5.51939900e+00  5.51795100e+00  5.52110700e+00  5.52961800e+00  5.54372400e+00  5.56341000e+00  5.58847400e+00  5.61843600e+00  5.65213500e+00  5.68579500e+00  5.69989200e+00  5.61936700e+00  5.45432800e+00  5.29667900e+00  5.24585600e+00  5.29044600e+00
      5.33649200e+00  5.32684600e+00  5.33074500e+00  5.37100000e+00  5.43952300e+00  5.49708100e+00  5.51912700e+00  5.52250100e+00  5.52278600e+00  5.52577900e+00  5.53347800e+00  5.54658400e+00  5.56528600e+00  5.58952700e+00  5.61907300e+00  5.65344600e+00  5.69157400e+00  5.73002600e+00  5.74646000e+00  5.62662400e+00  5.42974400e+00  5.29679100e+00  5.29218900e+00  5.32806200e+00
      5.37365500e+00  5.35158300e+00  5.34085400e+00  5.36540300e+00  5.42663300e+00  5.48814700e+00  5.51654800e+00  5.52495000e+00  5.52981100e+00  5.53730300e+00  5.54948900e+00  5.56705100e+00  5.59013100e+00  5.61861500e+00  5.65219700e+00  5.69032100e+00  5.73183700e+00  5.77322600e+00  5.78553700e+00  5.61439900e+00  5.41811000e+00  5.34142000e+00  5.36147900e+00  5.38163200e+00
      5.42581300e+00  5.39132600e+00  5.36468300e+00  5.36927400e+00  5.41665900e+00  5.47951400e+00  5.51556300e+00  5.52981100e+00  5.53949000e+00  5.55147800e+00  5.56801500e+00  5.58979200e+00  5.61690100e+00  5.64914000e+00  5.68606600e+00  5.72691900e+00  5.77017600e+00  5.81125900e+00  5.80031200e+00  5.59137900e+00  5.43961600e+00  5.42013600e+00  5.44413400e+00  5.44804300e+00
      5.49253400e+00  5.44617300e+00  5.40373700e+00  5.38606000e+00  5.41280200e+00  5.47152700e+00  5.51536900e+00  5.53618600e+00  5.55083800e+00  5.56721500e+00  5.58784400e+00  5.61344600e+00  5.64405200e+00  5.67931800e+00  5.71858200e+00  5.76069400e+00  5.80336600e+00  5.83923500e+00  5.77726200e+00  5.58197000e+00  5.50538900e+00  5.52199500e+00  5.53873700e+00  5.52745400e+00
      5.57387100e+00  5.51670400e+00  5.45962600e+00  5.41906400e+00  5.41891300e+00  5.46539200e+00  5.51534900e+00  5.54328200e+00  5.56296100e+00  5.58348100e+00  5.60778200e+00  5.63663600e+00  5.66997900e+00  5.70726500e+00  5.74749200e+00  5.78890500e+00  5.82792700e+00  5.85066000e+00  5.74231000e+00  5.61595700e+00  5.61393000e+00  5.64250800e+00  5.64643900e+00  5.62048400e+00
      5.65935800e+00  5.59890900e+00  5.53328900e+00  5.47252100e+00  5.44024300e+00  5.46338400e+00  5.51527400e+00  5.55056500e+00  5.57517500e+00  5.59942600e+00  5.62680500e+00  5.65814300e+00  5.69324100e+00  5.73128300e+00  5.77079700e+00  5.80919600e+00  5.84090400e+00  5.83978900e+00  5.73894400e+00  5.71499500e+00  5.75375000e+00  5.77299400e+00  5.75423500e+00  5.71213800e+00
      5.68731500e+00  5.64861200e+00  5.60619000e+00  5.54922100e+00  5.48766700e+00  5.46988600e+00  5.51553000e+00  5.55806500e+00  5.58723500e+00  5.61457300e+00  5.64425500e+00  5.67715900e+00  5.71290600e+00  5.75034500e+00  5.78744800e+00  5.82059200e+00  5.84133100e+00  5.82263300e+00  5.80173400e+00  5.83104700e+00  5.83181600e+00  5.80486600e+00  5.76741400e+00  5.72708000e+00
      5.67806100e+00  5.64951800e+00  5.62620800e+00  5.60687800e+00  5.57717200e+00  5.50955600e+00  5.51753200e+00  5.56763700e+00  5.59992000e+00  5.62916100e+00  5.66014100e+00  5.69363400e+00  5.72901900e+00  5.76479500e+00  5.79837000e+00  5.82480800e+00  5.83321100e+00  5.82785700e+00  5.83721900e+00  5.83273700e+00  5.81187700e+00  5.78123600e+00  5.74625400e+00  5.71092600e+00
      5.66481100e+00  5.64184800e+00  5.62535700e+00  5.61701500e+00  5.61998700e+00  5.64376400e+00  5.62382500e+00  5.59550600e+00  5.61754500e+00  5.64503600e+00  5.67569900e+00  5.70887500e+00  5.74346400e+00  5.77774200e+00  5.80861300e+00  5.82807200e+00  5.82634200e+00  5.82626800e+00  5.82328100e+00  5.80897200e+00  5.78518400e+00  5.75558800e+00  5.72376600e+00  5.69272200e+00