BEGIN_INFO
  # Launch as: xcrysden --bxsf ebands3d.bxsf
  Fermi Energy:     4.895408
END_INFO

BEGIN_BLOCK_BANDGRID_3D
  band_energies
  BANDGRID_3D_BANDS
    3
       21   21   21
          0.00000000      0.00000000      0.00000000
          0.25635169      0.00000000      0.00000000
          0.00000000      0.25635169      0.00000000
          0.00000000      0.00000000      0.25635169
    BAND:    16
      3.98753700e+00  3.98977900e+00  3.99632500e+00  4.00660700e+00  4.01978200e+00  4.03470900e+00  4.05009500e+00  4.06456300e+00  4.07680700e+00  4.08567400e+00  4.09033000e+00  4.09033000e+00  4.08567400e+00  4.07680700e+00  4.06456300e+00  4.05009500e+00  4.03470900e+00  4.01978200e+00  4.00660700e+00  3.99632500e+00  3.98977900e+00
      3.98977900e+00  4.04652700e+00  4.05885900e+00  4.06835700e+00  4.08038500e+00  4.09406400e+00  4.10823100e+00  4.12162400e+00  4.13298000e+00  4.14122600e+00  4.14556200e+00  4.14556200e+00  4.14122600e+00  4.13298000e+00  4.12162400e+00  4.10823100e+00  4.09406400e+00  4.08038500e+00  4.06835700e+00  4.05885900e+00  4.04652700e+00
      3.99632500e+00  4.05885900e+00  4.20162900e+00  4.22927000e+00  4.24014800e+00  4.25148000e+00  4.26309600e+00  4.27411100e+00  4.28350900e+00  4.29036600e+00  4.29398200e+00  4.29398200e+00  4.29036600e+00  4.28350900e+00  4.27411100e+00  4.26309600e+00  4.25148000e+00  4.24014800e+00  4.22927000e+00  4.20162900e+00  4.05885900e+00
      4.00660700e+00  4.06835700e+00  4.22927000e+00  4.41413900e+00  4.45492100e+00  4.46659700e+00  4.47628000e+00  4.48503600e+00  4.49242700e+00  4.49781400e+00  4.50065500e+00  4.50065500e+00  4.49781400e+00  4.49242700e+00  4.48503600e+00  4.47628000e+00  4.46659700e+00  4.45492100e+00  4.41413900e+00  4.22927000e+00  4.06835700e+00
      4.01978200e+00  4.08038500e+00  4.24014800e+00  4.45492100e+00  4.65460200e+00  4.70289800e+00  4.71450300e+00  4.72214300e+00  4.72803300e+00  4.73219700e+00  4.73437300e+00  4.73437300e+00  4.73219700e+00  4.72803300e+00  4.72214300e+00  4.71450300e+00  4.70289800e+00  4.65460200e+00  4.45492100e+00  4.24014800e+00  4.08038500e+00
      4.03470900e+00  4.09406400e+00  4.25148000e+00  4.46659700e+00  4.70289800e+00  4.90252800e+00  4.95179300e+00  4.96190200e+00  4.96721600e+00  4.97052300e+00  4.97217800e+00  4.97217800e+00  4.97052300e+00  4.96721600e+00  4.96190200e+00  4.95179300e+00  4.90252800e+00  4.70289800e+00  4.46659700e+00  4.25148000e+00  4.09406400e+00
      4.05009500e+00  4.10823100e+00  4.26309600e+00  4.47628000e+00  4.71450300e+00  4.95179300e+00  5.14131400e+00  5.18532000e+00  5.19262800e+00  5.19562800e+00  5.19692200e+00  5.19692200e+00  5.19562800e+00  5.19262800e+00  5.18532000e+00  5.14131400e+00  4.95179300e+00  4.71450300e+00  4.47628000e+00  4.26309600e+00  4.10823100e+00
      4.06456300e+00  4.12162400e+00  4.27411100e+00  4.48503600e+00  4.72214300e+00  4.96190200e+00  5.18532000e+00  5.35588000e+00  5.38964100e+00  5.39365400e+00  5.39477900e+00  5.39477900e+00  5.39365400e+00  5.38964100e+00  5.35588000e+00  5.18532000e+00  4.96190200e+00  4.72214300e+00  4.48503600e+00  4.27411100e+00  4.12162400e+00
      4.07680700e+00  4.13298000e+00  4.28350900e+00  4.49242700e+00  4.72803300e+00  4.96721600e+00  5.19262800e+00  5.38964100e+00  5.53211200e+00  5.55295000e+00  5.55429800e+00  5.55429800e+00  5.55295000e+00  5.53211200e+00  5.38964100e+00  5.19262800e+00  4.96721600e+00  4.72803300e+00  4.49242700e+00  4.28350900e+00  4.13298000e+00
      4.08567400e+00  4.14122600e+00  4.29036600e+00  4.49781400e+00  4.73219700e+00  4.97052300e+00  5.19562800e+00  5.39365400e+00  5.55295000e+00  5.65764100e+00  5.66620400e+00  5.66620400e+00  5.65764100e+00  5.55295000e+00  5.39365400e+00  5.19562800e+00  4.97052300e+00  4.73219700e+00  4.49781400e+00  4.29036600e+00  4.14122600e+00
      4.09033000e+00  4.14556200e+00  4.29398200e+00  4.50065500e+00  4.73437300e+00  4.97217800e+00  5.19692200e+00  5.39477900e+00  5.55429800e+00  5.66620400e+00  5.72301300e+00  5.72301300e+00  5.66620400e+00  5.55429800e+00  5.39477900e+00  5.19692200e+00  4.97217800e+00  4.73437300e+00  4.50065500e+00  4.29398200e+00  4.14556200e+00
      4.09033000e+00  4.14556200e+00  4.29398200e+00  4.50065500e+00  4.73437300e+00  4.97217800e+00  5.19692200e+00  5.39477900e+00  5.55429800e+00  5.66620400e+00  5.72301300e+00  5.72301300e+00  5.66620400e+00  5.55429800e+00  5.39477900e+00  5.19692200e+00  4.97217800e+00  4.73437300e+00  4.50065500e+00  4.29398200e+00  4.14556200e+00
      4.08567400e+00  4.14122600e+00  4.29036600e+00  4.49781400e+00  4.73219700e+00  4.97052300e+00  5.19562800e+00  5.39365400e+00  5.55295000e+00  5.65764100e+00  5.66620400e+00  5.66620400e+00  5.65764100e+00  5.55295000e+00  5.39365400e+00  5.19562800e+00  4.97052300e+00  4.73219700e+00  4.49781400e+00  4.29036600e+00  4.14122600e+00
      4.07680700e+00  4.13298000e+00  4.28350900e+00  4.49242700e+00  4.72803300e+00  4.96721600e+00  5.19262800e+00  5.38964100e+00  5.53211200e+00  5.55295000e+00  5.55429800e+00  5.55429800e+00  5.55295000e+00  5.53211200e+00  5.38964100e+00  5.19262800e+00  4.96721600e+00  4.72803300e+00  4.49242700e+00  4.28350900e+00  4.13298000e+00
      4.06456300e+00  4.12162400e+00  4.27411100e+00  4.48503600e+00  4.72214300e+00  4.96190200e+00  5.18532000e+00  5.35588000e+00  5.38964100e+00  5.39365400e+00  5.39477900e+00  5.39477900e+00  5.39365400e+00  5.38964100e+00  5.35588000e+00  5.18532000e+00  4.96190200e+00  4.72214300e+00  4.48503600e+00  4.27411100e+00  4.12162400e+00
      4.05009500e+00  4.10823100e+00  4.26309600e+00  4.47628000e+00  4.71450300e+00  4.95179300e+00  5.14131400e+00  5.18532000e+00  5.19262800e+00  5.19562800e+00  5.19692200e+00  5.19692200e+00  5.19562800e+00  5.19262800e+00  5.18532000e+00  5.14131400e+00  4.95179300e+00  4.71450300e+00  4.47628000e+00  4.26309600e+00  4.10823100e+00
      4.03470900e+00  4.09406400e+00  4.25148000e+00  4.46659700e+00  4.70289800e+00  4.90252800e+00  4.95179300e+00  4.96190200e+00  4.96721600e+00  4.97052300e+00  4.97217800e+00  4.97217800e+00  4.97052300e+00  4.96721600e+00  4.96190200e+00  4.95179300e+00  4.90252800e+00  4.70289800e+00  4.46659700e+00  4.25148000e+00  4.09406400e+00
      4.01978200e+00  4.08038500e+00  4.24014800e+00  4.45492100e+00  4.65460200e+00  4.70289800e+00  4.71450300e+00  4.72214300e+00  4.72803300e+00  4.73219700e+00  4.73437300e+00  4.73437300e+00  4.73219700e+00  4.72803300e+00  4.72214300e+00  4.71450300e+00  4.70289800e+00  4.65460200e+00  4.45492100e+00  4.24014800e+00  4.08038500e+00
      4.00660700e+00  4.06835700e+00  4.22927000e+00  4.41413900e+00  4.45492100e+00  4.46659700e+00  4.47628000e+00  4.48503600e+00  4.49242700e+00  4.49781400e+00  4.50065500e+00  4.50065500e+00  4.49781400e+00  4.49242700e+00  4.48503600e+00  4.47628000e+00  4.46659700e+00  4.45492100e+00  4.41413900e+00  4.22927000e+00  4.06835700e+00
      3.99632500e+00  4.05885900e+00  4.20162900e+00  4.22927000e+00  4.24014800e+00  4.25148000e+00  4.26309600e+00  4.27411100e+00  4.28350900e+00  4.29036600e+00  4.29398200e+00  4.29398200e+00  4.29036600e+00  4.28350900e+00  4.27411100e+00  4.26309600e+00  4.25148000e+00  4.24014800e+00  4.22927000e+00  4.20162900e+00  4.05885900e+00
      3.98977900e+00  4.04652700e+00  4.05885900e+00  4.06835700e+00  4.08038500e+00  4.09406400e+00  4.10823100e+00  4.12162400e+00  4.13298000e+00  4.14122600e+00  4.14556200e+00  4.14556200e+00  4.14122600e+00  4.13298000e+00  4.12162400e+00  4.10823100e+00  4.09406400e+00  4.08038500e+00  4.06835700e+00  4.05885900e+00  4.04652700e+00
      3.98977900e+00  4.04652700e+00  4.05885900e+00  4.06835700e+00  4.08038500e+00  4.09406400e+00  4.10823100e+00  4.12162400e+00  4.13298000e+00  4.14122600e+00  4.14556200e+00  4.14556200e+00  4.14122600e+00  4.13298000e+00  4.12162400e+00  4.10823100e+00  4.09406400e+00  4.08038500e+00  4.06835700e+00  4.05885900e+00  4.04652700e+00
      4.04652700e+00  4.09462000e+00  4.11275100e+00  4.12223000e+00  4.13385700e+00  4.14697600e+00  4.16051200e+00  4.17328400e+00  4.18411600e+00  4.19198400e+00  4.19612000e+00  4.19612000e+00  4.19198400e+00  4.18411600e+00  4.17328400e+00  4.16051200e+00  4.14697600e+00  4.13385700e+00  4.12223000e+00  4.11275100e+00  4.09462000e+00
      4.05885900e+00  4.11275100e+00  4.23797200e+00  4.26685800e+00  4.27877000e+00  4.29080300e+00  4.30290200e+00  4.31422000e+00  4.32378200e+00  4.33071700e+00  4.33436400e+00  4.33436400e+00  4.33071700e+00  4.32378200e+00  4.31422000e+00  4.30290200e+00  4.29080300e+00  4.27877000e+00  4.26685800e+00  4.23797200e+00  4.11275100e+00
      4.06835700e+00  4.12223000e+00  4.26685800e+00  4.43730100e+00  4.47954100e+00  4.49298400e+00  4.50401400e+00  4.51379500e+00  4.52190600e+00  4.52774500e+00  4.53080300e+00  4.53080300e+00  4.52774500e+00  4.52190600e+00  4.51379500e+00  4.50401400e+00  4.49298400e+00  4.47954100e+00  4.43730100e+00  4.26685800e+00  4.12223000e+00
      4.08038500e+00  4.13385700e+00  4.27877000e+00  4.47954100e+00  4.66953100e+00  4.71947500e+00  4.73302300e+00  4.74212300e+00  4.74907500e+00  4.75393000e+00  4.75644500e+00  4.75644500e+00  4.75393000e+00  4.74907500e+00  4.74212300e+00  4.73302300e+00  4.71947500e+00  4.66953100e+00  4.47954100e+00  4.27877000e+00  4.13385700e+00
      4.09406400e+00  4.14697600e+00  4.29080300e+00  4.49298400e+00  4.71947500e+00  4.91282600e+00  4.96382200e+00  4.97573700e+00  4.98232200e+00  4.98646200e+00  4.98852600e+00  4.98852600e+00  4.98646200e+00  4.98232200e+00  4.97573700e+00  4.96382200e+00  4.91282600e+00  4.71947500e+00  4.49298400e+00  4.29080300e+00  4.14697600e+00
      4.10823100e+00  4.16051200e+00  4.30290200e+00  4.50401400e+00  4.73302300e+00  4.96382200e+00  5.14934000e+00  5.19508700e+00  5.20385600e+00  5.20776100e+00  5.20950700e+00  5.20950700e+00  5.20776100e+00  5.20385600e+00  5.19508700e+00  5.14934000e+00  4.96382200e+00  4.73302300e+00  4.50401400e+00  4.30290200e+00  4.16051200e+00
      4.12162400e+00  4.17328400e+00  4.31422000e+00  4.51379500e+00  4.74212300e+00  4.97573700e+00  5.19508700e+00  5.36317900e+00  5.39854100e+00  5.40356500e+00  5.40515500e+00  5.40515500e+00  5.40356500e+00  5.39854100e+00  5.36317900e+00  5.19508700e+00  4.97573700e+00  4.74212300e+00  4.51379500e+00  4.31422000e+00  4.17328400e+00
      4.13298000e+00  4.18411600e+00  4.32378200e+00  4.52190600e+00  4.74907500e+00  4.98232200e+00  5.20385600e+00  5.39854100e+00  5.53972300e+00  5.56175300e+00  5.56360200e+00  5.56360200e+00  5.56175300e+00  5.53972300e+00  5.39854100e+00  5.20385600e+00  4.98232200e+00  4.74907500e+00  4.52190600e+00  4.32378200e+00  4.18411600e+00
      4.14122600e+00  4.19198400e+00  4.33071700e+00  4.52774500e+00  4.75393000e+00  4.98646200e+00  5.20776100e+00  5.40356500e+00  5.56175300e+00  5.66597400e+00  5.67516600e+00  5.67516600e+00  5.66597400e+00  5.56175300e+00  5.40356500e+00  5.20776100e+00  4.98646200e+00  4.75393000e+00  4.52774500e+00  4.33071700e+00  4.19198400e+00
      4.14556200e+00  4.19612000e+00  4.33436400e+00  4.53080300e+00  4.75644500e+00  4.98852600e+00  5.20950700e+00  5.40515500e+00  5.56360200e+00  5.67516600e+00  5.73189600e+00  5.73189600e+00  5.67516600e+00  5.56360200e+00  5.40515500e+00  5.20950700e+00  4.98852600e+00  4.75644500e+00  4.53080300e+00  4.33436400e+00  4.19612000e+00
      4.14556200e+00  4.19612000e+00  4.33436400e+00  4.53080300e+00  4.75644500e+00  4.98852600e+00  5.20950700e+00  5.40515500e+00  5.56360200e+00  5.67516600e+00  5.73189600e+00  5.73189600e+00  5.67516600e+00  5.56360200e+00  5.40515500e+00  5.20950700e+00  4.98852600e+00  4.75644500e+00  4.53080300e+00  4.33436400e+00  4.19612000e+00
      4.14122600e+00  4.19198400e+00  4.33071700e+00  4.52774500e+00  4.75393000e+00  4.98646200e+00  5.20776100e+00  5.40356500e+00  5.56175300e+00  5.66597400e+00  5.67516600e+00  5.67516600e+00  5.66597400e+00  5.56175300e+00  5.40356500e+00  5.20776100e+00  4.98646200e+00  4.75393000e+00  4.52774500e+00  4.33071700e+00  4.19198400e+00
      4.13298000e+00  4.18411600e+00  4.32378200e+00  4.52190600e+00  4.74907500e+00  4.98232200e+00  5.20385600e+00  5.39854100e+00  5.53972300e+00  5.56175300e+00  5.56360200e+00  5.56360200e+00  5.56175300e+00  5.53972300e+00  5.39854100e+00  5.20385600e+00  4.98232200e+00  4.74907500e+00  4.52190600e+00  4.32378200e+00  4.18411600e+00
      4.12162400e+00  4.17328400e+00  4.31422000e+00  4.51379500e+00  4.74212300e+00  4.97573700e+00  5.19508700e+00  5.36317900e+00  5.39854100e+00  5.40356500e+00  5.40515500e+00  5.40515500e+00  5.40356500e+00  5.39854100e+00  5.36317900e+00  5.19508700e+00  4.97573700e+00  4.74212300e+00  4.51379500e+00  4.31422000e+00  4.17328400e+00
      4.10823100e+00  4.16051200e+00  4.30290200e+00  4.50401400e+00  4.73302300e+00  4.96382200e+00  5.14934000e+00  5.19508700e+00  5.20385600e+00  5.20776100e+00  5.20950700e+00  5.20950700e+00  5.20776100e+00  5.20385600e+00  5.19508700e+00  5.14934000e+00  4.96382200e+00  4.73302300e+00  4.50401400e+00  4.30290200e+00  4.16051200e+00
      4.09406400e+00  4.14697600e+00  4.29080300e+00  4.49298400e+00  4.71947500e+00  4.91282600e+00  4.96382200e+00  4.97573700e+00  4.98232200e+00  4.98646200e+00  4.98852600e+00  4.98852600e+00  4.98646200e+00  4.98232200e+00  4.97573700e+00  4.96382200e+00  4.91282600e+00  4.71947500e+00  4.49298400e+00  4.29080300e+00  4.14697600e+00
      4.08038500e+00  4.13385700e+00  4.27877000e+00  4.47954100e+00  4.66953100e+00  4.71947500e+00  4.73302300e+00  4.74212300e+00  4.74907500e+00  4.75393000e+00  4.75644500e+00  4.75644500e+00  4.75393000e+00  4.74907500e+00  4.74212300e+00  4.73302300e+00  4.71947500e+00  4.66953100e+00  4.47954100e+00  4.27877000e+00  4.13385700e+00
      4.06835700e+00  4.12223000e+00  4.26685800e+00  4.43730100e+00  4.47954100e+00  4.49298400e+00  4.50401400e+00  4.51379500e+00  4.52190600e+00  4.52774500e+00  4.53080300e+00  4.53080300e+00  4.52774500e+00  4.52190600e+00  4.51379500e+00  4.50401400e+00  4.49298400e+00  4.47954100e+00  4.43730100e+00  4.26685800e+00  4.12223000e+00
      4.05885900e+00  4.11275100e+00  4.23797200e+00  4.26685800e+00  4.27877000e+00  4.29080300e+00  4.30290200e+00  4.31422000e+00  4.32378200e+00  4.33071700e+00  4.33436400e+00  4.33436400e+00  4.33071700e+00  4.32378200e+00  4.31422000e+00  4.30290200e+00  4.29080300e+00  4.27877000e+00  4.26685800e+00  4.23797200e+00  4.11275100e+00
      4.04652700e+00  4.09462000e+00  4.11275100e+00  4.12223000e+00  4.13385700e+00  4.14697600e+00  4.16051200e+00  4.17328400e+00  4.18411600e+00  4.19198400e+00  4.19612000e+00  4.19612000e+00  4.19198400e+00  4.18411600e+00  4.17328400e+00  4.16051200e+00  4.14697600e+00  4.13385700e+00  4.12223000e+00  4.11275100e+00  4.09462000e+00
      3.99632500e+00  4.05885900e+00  4.20162900e+00  4.22927000e+00  4.24014800e+00  4.25148000e+00  4.26309600e+00  4.27411100e+00  4.28350900e+00  4.29036600e+00  4.29398200e+00  4.29398200e+00  4.29036600e+00  4.28350900e+00  4.27411100e+00  4.26309600e+00  4.25148000e+00  4.24014800e+00  4.22927000e+00  4.20162900e+00  4.05885900e+00
      4.05885900e+00  4.11275100e+00  4.23797200e+00  4.26685800e+00  4.27877000e+00  4.29080300e+00  4.30290200e+00  4.31422000e+00  4.32378200e+00  4.33071700e+00  4.33436400e+00  4.33436400e+00  4.33071700e+00  4.32378200e+00  4.31422000e+00  4.30290200e+00  4.29080300e+00  4.27877000e+00  4.26685800e+00  4.23797200e+00  4.11275100e+00
      4.20162900e+00  4.23797200e+00  4.33182400e+00  4.37469500e+00  4.39005400e+00  4.40367700e+00  4.41668600e+00  4.42848300e+00  4.43825300e+00  4.44524700e+00  4.44889700e+00  4.44889700e+00  4.44524700e+00  4.43825300e+00  4.42848300e+00  4.41668600e+00  4.40367700e+00  4.39005400e+00  4.37469500e+00  4.33182400e+00  4.23797200e+00
      4.22927000e+00  4.26685800e+00  4.37469500e+00  4.51067700e+00  4.55580000e+00  4.57330100e+00  4.58738600e+00  4.59945900e+00  4.60919100e+00  4.61605100e+00  4.61960000e+00  4.61960000e+00  4.61605100e+00  4.60919100e+00  4.59945900e+00  4.58738600e+00  4.57330100e+00  4.55580000e+00  4.51067700e+00  4.37469500e+00  4.26685800e+00
      4.24014800e+00  4.27877000e+00  4.39005400e+00  4.55580000e+00  4.72090600e+00  4.77344300e+00  4.79147100e+00  4.80408600e+00  4.81363700e+00  4.82019800e+00  4.82355100e+00  4.82355100e+00  4.82019800e+00  4.81363700e+00  4.80408600e+00  4.79147100e+00  4.77344300e+00  4.72090600e+00  4.55580000e+00  4.39005400e+00  4.27877000e+00
      4.25148000e+00  4.29080300e+00  4.40367700e+00  4.57330100e+00  4.77344300e+00  4.95011900e+00  5.00409900e+00  5.02026500e+00  5.03002800e+00  5.03628300e+00  5.03940200e+00  5.03940200e+00  5.03628300e+00  5.03002800e+00  5.02026500e+00  5.00409900e+00  4.95011900e+00  4.77344300e+00  4.57330100e+00  4.40367700e+00  4.29080300e+00
      4.26309600e+00  4.30290200e+00  4.41668600e+00  4.58738600e+00  4.79147100e+00  5.00409900e+00  5.17871200e+00  5.22771500e+00  5.24004500e+00  5.24628200e+00  5.24918300e+00  5.24918300e+00  5.24628200e+00  5.24004500e+00  5.22771500e+00  5.17871200e+00  5.00409900e+00  4.79147100e+00  4.58738600e+00  4.41668600e+00  4.30290200e+00
      4.27411100e+00  4.31422000e+00  4.42848300e+00  4.59945900e+00  4.80408600e+00  5.02026500e+00  5.22771500e+00  5.38894300e+00  5.42748600e+00  5.43501900e+00  5.43782300e+00  5.43782300e+00  5.43501900e+00  5.42748600e+00  5.38894300e+00  5.22771500e+00  5.02026500e+00  4.80408600e+00  4.59945900e+00  4.42848300e+00  4.31422000e+00
      4.28350900e+00  4.32378200e+00  4.43825300e+00  4.60919100e+00  4.81363700e+00  5.03002800e+00  5.24004500e+00  5.42748600e+00  5.56471600e+00  5.58930200e+00  5.59240000e+00  5.59240000e+00  5.58930200e+00  5.56471600e+00  5.42748600e+00  5.24004500e+00  5.03002800e+00  4.81363700e+00  4.60919100e+00  4.43825300e+00  4.32378200e+00
      4.29036600e+00  4.33071700e+00  4.44524700e+00  4.61605100e+00  4.82019800e+00  5.03628300e+00  5.24628200e+00  5.43501900e+00  5.58930200e+00  5.69164800e+00  5.70223100e+00  5.70223100e+00  5.69164800e+00  5.58930200e+00  5.43501900e+00  5.24628200e+00  5.03628300e+00  4.82019800e+00  4.61605100e+00  4.44524700e+00  4.33071700e+00
      4.29398200e+00  4.33436400e+00  4.44889700e+00  4.61960000e+00  4.82355100e+00  5.03940200e+00  5.24918300e+00  5.43782300e+00  5.59240000e+00  5.70223100e+00  5.75837000e+00  5.75837000e+00  5.70223100e+00  5.59240000e+00  5.43782300e+00  5.24918300e+00  5.03940200e+00  4.82355100e+00  4.61960000e+00  4.44889700e+00  4.33436400e+00
      4.29398200e+00  4.33436400e+00  4.44889700e+00  4.61960000e+00  4.82355100e+00  5.03940200e+00  5.24918300e+00  5.43782300e+00  5.59240000e+00  5.70223100e+00  5.75837000e+00  5.75837000e+00  5.70223100e+00  5.59240000e+00  5.43782300e+00  5.24918300e+00  5.03940200e+00  4.82355100e+00  4.61960000e+00  4.44889700e+00  4.33436400e+00
      4.29036600e+00  4.33071700e+00  4.44524700e+00  4.61605100e+00  4.82019800e+00  5.03628300e+00  5.24628200e+00  5.43501900e+00  5.58930200e+00  5.69164800e+00  5.70223100e+00  5.70223100e+00  5.69164800e+00  5.58930200e+00  5.43501900e+00  5.24628200e+00  5.03628300e+00  4.82019800e+00  4.61605100e+00  4.44524700e+00  4.33071700e+00
      4.28350900e+00  4.32378200e+00  4.43825300e+00  4.60919100e+00  4.81363700e+00  5.03002800e+00  5.24004500e+00  5.42748600e+00  5.56471600e+00  5.58930200e+00  5.59240000e+00  5.59240000e+00  5.58930200e+00  5.56471600e+00  5.42748600e+00  5.24004500e+00  5.03002800e+00  4.81363700e+00  4.60919100e+00  4.43825300e+00  4.32378200e+00
      4.27411100e+00  4.31422000e+00  4.42848300e+00  4.59945900e+00  4.80408600e+00  5.02026500e+00  5.22771500e+00  5.38894300e+00  5.42748600e+00  5.43501900e+00  5.43782300e+00  5.43782300e+00  5.43501900e+00  5.42748600e+00  5.38894300e+00  5.22771500e+00  5.02026500e+00  4.80408600e+00  4.59945900e+00  4.42848300e+00  4.31422000e+00
      4.26309600e+00  4.30290200e+00  4.41668600e+00  4.58738600e+00  4.79147100e+00  5.00409900e+00  5.17871200e+00  5.22771500e+00  5.24004500e+00  5.24628200e+00  5.24918300e+00  5.24918300e+00  5.24628200e+00  5.24004500e+00  5.22771500e+00  5.17871200e+00  5.00409900e+00  4.79147100e+00  4.58738600e+00  4.41668600e+00  4.30290200e+00
      4.25148000e+00  4.29080300e+00  4.40367700e+00  4.57330100e+00  4.77344300e+00  4.95011900e+00  5.00409900e+00  5.02026500e+00  5.03002800e+00  5.03628300e+00  5.03940200e+00  5.03940200e+00  5.03628300e+00  5.03002800e+00  5.02026500e+00  5.00409900e+00  4.95011900e+00  4.77344300e+00  4.57330100e+00  4.40367700e+00  4.29080300e+00
      4.24014800e+00  4.27877000e+00  4.39005400e+00  4.55580000e+00  4.72090600e+00  4.77344300e+00  4.79147100e+00  4.80408600e+00  4.81363700e+00  4.82019800e+00  4.82355100e+00  4.82355100e+00  4.82019800e+00  4.81363700e+00  4.80408600e+00  4.79147100e+00  4.77344300e+00  4.72090600e+00  4.55580000e+00  4.39005400e+00  4.27877000e+00
      4.22927000e+00  4.26685800e+00  4.37469500e+00  4.51067700e+00  4.55580000e+00  4.57330100e+00  4.58738600e+00  4.59945900e+00  4.60919100e+00  4.61605100e+00  4.61960000e+00  4.61960000e+00  4.61605100e+00  4.60919100e+00  4.59945900e+00  4.58738600e+00  4.57330100e+00  4.55580000e+00  4.51067700e+00  4.37469500e+00  4.26685800e+00
      4.20162900e+00  4.23797200e+00  4.33182400e+00  4.37469500e+00  4.39005400e+00  4.40367700e+00  4.41668600e+00  4.42848300e+00  4.43825300e+00  4.44524700e+00  4.44889700e+00  4.44889700e+00  4.44524700e+00  4.43825300e+00  4.42848300e+00  4.41668600e+00  4.40367700e+00  4.39005400e+00  4.37469500e+00  4.33182400e+00  4.23797200e+00
      4.05885900e+00  4.11275100e+00  4.23797200e+00  4.26685800e+00  4.27877000e+00  4.29080300e+00  4.30290200e+00  4.31422000e+00  4.32378200e+00  4.33071700e+00  4.33436400e+00  4.33436400e+00  4.33071700e+00  4.32378200e+00  4.31422000e+00  4.30290200e+00  4.29080300e+00  4.27877000e+00  4.26685800e+00  4.23797200e+00  4.11275100e+00
      4.00660700e+00  4.06835700e+00  4.22927000e+00  4.41413900e+00  4.45492100e+00  4.46659700e+00  4.47628000e+00  4.48503600e+00  4.49242700e+00  4.49781400e+00  4.50065500e+00  4.50065500e+00  4.49781400e+00  4.49242700e+00  4.48503600e+00  4.47628000e+00  4.46659700e+00  4.45492100e+00  4.41413900e+00  4.22927000e+00  4.06835700e+00
      4.06835700e+00  4.12223000e+00  4.26685800e+00  4.43730100e+00  4.47954100e+00  4.49298400e+00  4.50401400e+00  4.51379500e+00  4.52190600e+00  4.52774500e+00  4.53080300e+00  4.53080300e+00  4.52774500e+00  4.52190600e+00  4.51379500e+00  4.50401400e+00  4.49298400e+00  4.47954100e+00  4.43730100e+00  4.26685800e+00  4.12223000e+00
      4.22927000e+00  4.26685800e+00  4.37469500e+00  4.51067700e+00  4.55580000e+00  4.57330100e+00  4.58738600e+00  4.59945900e+00  4.60919100e+00  4.61605100e+00  4.61960000e+00  4.61960000e+00  4.61605100e+00  4.60919100e+00  4.59945900e+00  4.58738600e+00  4.57330100e+00  4.55580000e+00  4.51067700e+00  4.37469500e+00  4.26685800e+00
      4.41413900e+00  4.43730100e+00  4.51067700e+00  4.61953600e+00  4.68005900e+00  4.70386300e+00  4.72134800e+00  4.73575800e+00  4.74709800e+00  4.75496100e+00  4.75898400e+00  4.75898400e+00  4.75496100e+00  4.74709800e+00  4.73575800e+00  4.72134800e+00  4.70386300e+00  4.68005900e+00  4.61953600e+00  4.51067700e+00  4.43730100e+00
      4.45492100e+00  4.47954100e+00  4.55580000e+00  4.68005900e+00  4.81413600e+00  4.86876100e+00  4.89174900e+00  4.90832300e+00  4.92084200e+00  4.92936700e+00  4.93369600e+00  4.93369600e+00  4.92936700e+00  4.92084200e+00  4.90832300e+00  4.89174900e+00  4.86876100e+00  4.81413600e+00  4.68005900e+00  4.55580000e+00  4.47954100e+00
      4.46659700e+00  4.49298400e+00  4.57330100e+00  4.70386300e+00  4.86876100e+00  5.02246000e+00  5.07790600e+00  5.09881200e+00  5.11239900e+00  5.12127500e+00  5.12572200e+00  5.12572200e+00  5.12127500e+00  5.11239900e+00  5.09881200e+00  5.07790600e+00  5.02246000e+00  4.86876100e+00  4.70386300e+00  4.57330100e+00  4.49298400e+00
      4.47628000e+00  4.50401400e+00  4.58738600e+00  4.72134800e+00  4.89174900e+00  5.07790600e+00  5.23657200e+00  5.28766000e+00  5.30415600e+00  5.31336300e+00  5.31779400e+00  5.31779400e+00  5.31336300e+00  5.30415600e+00  5.28766000e+00  5.23657200e+00  5.07790600e+00  4.89174900e+00  4.72134800e+00  4.58738600e+00  4.50401400e+00
      4.48503600e+00  4.51379500e+00  4.59945900e+00  4.73575800e+00  4.90832300e+00  5.09881200e+00  5.28766000e+00  5.43825600e+00  5.47928900e+00  5.48991300e+00  5.49431700e+00  5.49431700e+00  5.48991300e+00  5.47928900e+00  5.43825600e+00  5.28766000e+00  5.09881200e+00  4.90832300e+00  4.73575800e+00  4.59945900e+00  4.51379500e+00
      4.49242700e+00  4.52190600e+00  4.60919100e+00  4.74709800e+00  4.92084200e+00  5.11239900e+00  5.30415600e+00  5.47928900e+00  5.60980700e+00  5.63670100e+00  5.64142500e+00  5.64142500e+00  5.63670100e+00  5.60980700e+00  5.47928900e+00  5.30415600e+00  5.11239900e+00  4.92084200e+00  4.74709800e+00  4.60919100e+00  4.52190600e+00
      4.49781400e+00  4.52774500e+00  4.61605100e+00  4.75496100e+00  4.92936700e+00  5.12127500e+00  5.31336300e+00  5.48991300e+00  5.63670100e+00  5.73524600e+00  5.74720800e+00  5.74720800e+00  5.73524600e+00  5.63670100e+00  5.48991300e+00  5.31336300e+00  5.12127500e+00  4.92936700e+00  4.75496100e+00  4.61605100e+00  4.52774500e+00
      4.50065500e+00  4.53080300e+00  4.61960000e+00  4.75898400e+00  4.93369600e+00  5.12572200e+00  5.31779400e+00  5.49431700e+00  5.64142500e+00  5.74720800e+00  5.80168200e+00  5.80168200e+00  5.74720800e+00  5.64142500e+00  5.49431700e+00  5.31779400e+00  5.12572200e+00  4.93369600e+00  4.75898400e+00  4.61960000e+00  4.53080300e+00
      4.50065500e+00  4.53080300e+00  4.61960000e+00  4.75898400e+00  4.93369600e+00  5.12572200e+00  5.31779400e+00  5.49431700e+00  5.64142500e+00  5.74720800e+00  5.80168200e+00  5.80168200e+00  5.74720800e+00  5.64142500e+00  5.49431700e+00  5.31779400e+00  5.12572200e+00  4.93369600e+00  4.75898400e+00  4.61960000e+00  4.53080300e+00
      4.49781400e+00  4.52774500e+00  4.61605100e+00  4.75496100e+00  4.92936700e+00  5.12127500e+00  5.31336300e+00  5.48991300e+00  5.63670100e+00  5.73524600e+00  5.74720800e+00  5.74720800e+00  5.73524600e+00  5.63670100e+00  5.48991300e+00  5.31336300e+00  5.12127500e+00  4.92936700e+00  4.75496100e+00  4.61605100e+00  4.52774500e+00
      4.49242700e+00  4.52190600e+00  4.60919100e+00  4.74709800e+00  4.92084200e+00  5.11239900e+00  5.30415600e+00  5.47928900e+00  5.60980700e+00  5.63670100e+00  5.64142500e+00  5.64142500e+00  5.63670100e+00  5.60980700e+00  5.47928900e+00  5.30415600e+00  5.11239900e+00  4.92084200e+00  4.74709800e+00  4.60919100e+00  4.52190600e+00
      4.48503600e+00  4.51379500e+00  4.59945900e+00  4.73575800e+00  4.90832300e+00  5.09881200e+00  5.28766000e+00  5.43825600e+00  5.47928900e+00  5.48991300e+00  5.49431700e+00  5.49431700e+00  5.48991300e+00  5.47928900e+00  5.43825600e+00  5.28766000e+00  5.09881200e+00  4.90832300e+00  4.73575800e+00  4.59945900e+00  4.51379500e+00
      4.47628000e+00  4.50401400e+00  4.58738600e+00  4.72134800e+00  4.89174900e+00  5.07790600e+00  5.23657200e+00  5.28766000e+00  5.30415600e+00  5.31336300e+00  5.31779400e+00  5.31779400e+00  5.31336300e+00  5.30415600e+00  5.28766000e+00  5.23657200e+00  5.07790600e+00  4.89174900e+00  4.72134800e+00  4.58738600e+00  4.50401400e+00
      4.46659700e+00  4.49298400e+00  4.57330100e+00  4.70386300e+00  4.86876100e+00  5.02246000e+00  5.07790600e+00  5.09881200e+00  5.11239900e+00  5.12127500e+00  5.12572200e+00  5.12572200e+00  5.12127500e+00  5.11239900e+00  5.09881200e+00  5.07790600e+00  5.02246000e+00  4.86876100e+00  4.70386300e+00  4.57330100e+00  4.49298400e+00
      4.45492100e+00  4.47954100e+00  4.55580000e+00  4.68005900e+00  4.81413600e+00  4.86876100e+00  4.89174900e+00  4.90832300e+00  4.92084200e+00  4.92936700e+00  4.93369600e+00  4.93369600e+00  4.92936700e+00  4.92084200e+00  4.90832300e+00  4.89174900e+00  4.86876100e+00  4.81413600e+00  4.68005900e+00  4.55580000e+00  4.47954100e+00
      4.41413900e+00  4.43730100e+00  4.51067700e+00  4.61953600e+00  4.68005900e+00  4.70386300e+00  4.72134800e+00  4.73575800e+00  4.74709800e+00  4.75496100e+00  4.75898400e+00  4.75898400e+00  4.75496100e+00  4.74709800e+00  4.73575800e+00  4.72134800e+00  4.70386300e+00  4.68005900e+00  4.61953600e+00  4.51067700e+00  4.43730100e+00
      4.22927000e+00  4.26685800e+00  4.37469500e+00  4.51067700e+00  4.55580000e+00  4.57330100e+00  4.58738600e+00  4.59945900e+00  4.60919100e+00  4.61605100e+00  4.61960000e+00  4.61960000e+00  4.61605100e+00  4.60919100e+00  4.59945900e+00  4.58738600e+00  4.57330100e+00  4.55580000e+00  4.51067700e+00  4.37469500e+00  4.26685800e+00
      4.06835700e+00  4.12223000e+00  4.26685800e+00  4.43730100e+00  4.47954100e+00  4.49298400e+00  4.50401400e+00  4.51379500e+00  4.52190600e+00  4.52774500e+00  4.53080300e+00  4.53080300e+00  4.52774500e+00  4.52190600e+00  4.51379500e+00  4.50401400e+00  4.49298400e+00  4.47954100e+00  4.43730100e+00  4.26685800e+00  4.12223000e+00
      4.01978200e+00  4.08038500e+00  4.24014800e+00  4.45492100e+00  4.65460200e+00  4.70289800e+00  4.71450300e+00  4.72214300e+00  4.72803300e+00  4.73219700e+00  4.73437300e+00  4.73437300e+00  4.73219700e+00  4.72803300e+00  4.72214300e+00  4.71450300e+00  4.70289800e+00  4.65460200e+00  4.45492100e+00  4.24014800e+00  4.08038500e+00
      4.08038500e+00  4.13385700e+00  4.27877000e+00  4.47954100e+00  4.66953100e+00  4.71947500e+00  4.73302300e+00  4.74212300e+00  4.74907500e+00  4.75393000e+00  4.75644500e+00  4.75644500e+00  4.75393000e+00  4.74907500e+00  4.74212300e+00  4.73302300e+00  4.71947500e+00  4.66953100e+00  4.47954100e+00  4.27877000e+00  4.13385700e+00