    5    5    1    1
  0.1187193E+02  0.3900891E-09  0.3900891E-09  0.3900891E-09  0.5000000E-15
  1.000000000000000E-004
  CAR 
 SrVO3                                   
     33    286     20
 
  0.0000000E+00  0.0000000E+00  0.0000000E+00  0.1079797E-03
    1      -29.615440   1.000000
    2      -14.490007   1.000000
    3      -13.355288   1.000000
    4      -13.355288   1.000000
    5      -11.603503   1.000000
    6      -11.603503   1.000000
    7      -11.603503   1.000000
    8       -0.036560   1.000000
    9       -0.036560   1.000000
   10       -0.036560   1.000000
   11        1.926858   1.000000
   12        1.926858   1.000000
   13        1.926858   1.000000
   14        2.678946   1.000000
   15        2.678946   1.000000
   16        2.678946   1.000000
   17        3.987537   1.000000
   18        3.987537   1.000000
   19        3.987537   1.000000
   20        8.621318   0.000000
 
  0.4761905E-01  0.0000000E+00  0.0000000E+00  0.6478782E-03
    1      -29.614916   1.000000
    2      -14.490040   1.000000
    3      -13.361623   1.000000
    4      -13.354329   1.000000
    5      -11.602376   1.000000
    6      -11.602376   1.000000
    7      -11.587550   1.000000
    8       -0.068300   1.000000
    9       -0.037199   1.000000
   10       -0.037199   1.000000
   11        1.888857   1.000000
   12        1.888857   1.000000
   13        1.906009   1.000000
   14        2.595901   1.000000
   15        2.653614   1.000000
   16        2.653614   1.000000
   17        3.989779   1.000000
   18        4.052294   1.000000
   19        4.052295   1.000000
   20        8.656619   0.000000
 
  0.9523810E-01  0.0000000E+00  0.0000000E+00  0.6478782E-03
    1      -29.613390   1.000000
    2      -14.490394   1.000000
    3      -13.377289   1.000000
    4      -13.351566   1.000000
    5      -11.599078   1.000000
    6      -11.599078   1.000000
    7      -11.542444   1.000000
    8       -0.160601   1.000000
    9       -0.038919   1.000000
   10       -0.038919   1.000000
   11        1.781448   1.000000
   12        1.781448   1.000000
   13        1.846386   1.000000
   14        2.377009   1.000000
   15        2.595666   1.000000
   16        2.595666   1.000000
   17        3.996325   1.000000
   18        4.222116   1.000000
   19        4.222116   1.000000
   20        8.845098   0.000000
 
  0.1428571E+00  0.0000000E+00  0.0000000E+00  0.6478782E-03
    1      -29.610995   1.000000
    2      -14.494300   1.000000
    3      -13.394762   1.000000
    4      -13.347268   1.000000
    5      -11.593902   1.000000
    6      -11.593902   1.000000
    7      -11.475471   1.000000
    8       -0.304986   1.000000
    9       -0.041137   1.000000
   10       -0.041137   1.000000
   11        1.623685   1.000000
   12        1.623685   1.000000
   13        1.756025   1.000000
   14        2.082835   1.000000
   15        2.531082   1.000000
   16        2.531082   1.000000
   17        4.006607   1.000000
   18        4.451905   1.000000
   19        4.451905   1.000000
   20        8.965282   0.000000
 
  0.1904762E+00  0.0000000E+00  0.0000000E+00  0.6478782E-03
    1      -29.607944   1.000000
    2      -14.504914   1.000000
    3      -13.405313   1.000000
    4      -13.342147   1.000000
    5      -11.587299   1.000000
    6      -11.587299   1.000000
    7      -11.395799   1.000000
    8       -0.488453   1.000000
    9       -0.042937   1.000000
   10       -0.042937   1.000000
   11        1.440161   1.000000
   12        1.440161   1.000000
   13        1.645882   1.000000
   14        1.766294   1.000000
   15        2.470569   1.000000
   16        2.470569   1.000000
   17        4.019782   1.000000
   18        4.706077   0.993605
   19        4.706077   0.993605
   20        9.346231   0.000000
 
  0.2380952E+00  0.0000000E+00  0.0000000E+00  0.6478782E-03
    1      -29.604502   1.000000
    2      -14.523978   1.000000
    3      -13.402828   1.000000
    4      -13.336503   1.000000
    5      -11.579860   1.000000
    6      -11.579860   1.000000
    7      -11.312435   1.000000
    8       -0.694580   1.000000
    9       -0.043206   1.000000
   10       -0.043206   1.000000
   11        1.251916   1.000000
   12        1.251917   1.000000
   13        1.462437   1.000000
   14        1.527720   1.000000
   15        2.416072   1.000000
   16        2.416072   1.000000
   17        4.034709   1.000000
   18        4.960704   0.133200
   19        4.960704   0.133200
   20        9.515536   0.000000
 
  0.2857143E+00  0.0000000E+00  0.0000000E+00  0.6478782E-03
    1      -29.600982   1.000000
    2      -14.549851   1.000000
    3      -13.386429   1.000000
    4      -13.330658   1.000000
    5      -11.572187   1.000000
    6      -11.572187   1.000000
    7      -11.232942   1.000000
    8       -0.904913   1.000000
    9       -0.040855   1.000000
   10       -0.040855   1.000000
   11        1.073940   1.000000
   12        1.073940   1.000000
   13        1.192289   1.000000
   14        1.412502   1.000000
   15        2.368284   1.000000
   16        2.368284   1.000000
   17        4.050095   1.000000
   18        5.198626   0.000004
   19        5.198626   0.000004
   20        9.743049   0.000000
 
  0.3333333E+00  0.0000000E+00  0.0000000E+00  0.6478782E-03
    1      -29.597688   1.000000
    2      -14.579058   1.000000
    3      -13.360538   1.000000
    4      -13.325250   1.000000
    5      -11.565004   1.000000
    6      -11.565004   1.000000
    7      -11.163396   1.000000
    8       -1.100657   1.000000
    9       -0.035255   1.000000
   10       -0.035255   1.000000
   11        0.916693   1.000000
   12        0.916693   1.000000
   13        0.967768   1.000000
   14        1.309532   1.000000
   15        2.328071   1.000000
   16        2.328071   1.000000
   17        4.064563   1.000000
   18        5.406264   0.000000
   19        5.406264   0.000000
   20       10.034272   0.000000
 
  0.3809524E+00  0.0000000E+00  0.0000000E+00  0.6478782E-03
    1      -29.594918   1.000000
    2      -14.606555   1.000000
    3      -13.331643   1.000000
    4      -13.320603   1.000000
    5      -11.558951   1.000000
    6      -11.558951   1.000000
    7      -11.108018   1.000000
    8       -1.264479   1.000000
    9       -0.026800   1.000000
   10       -0.026800   1.000000
   11        0.788344   1.000000
   12        0.788344   1.000000
   13        0.795477   1.000000
   14        1.226108   1.000000
   15        2.296631   1.000000
   16        2.296631   1.000000
   17        4.076807   1.000000
   18        5.572580   0.000000
   19        5.572619   0.000000
   20       10.245810   0.000000
 
  0.4285714E+00  0.0000000E+00  0.0000000E+00  0.6478782E-03
    1      -29.592921   1.000000
    2      -14.627775   1.000000
    3      -13.317239   1.000000
    4      -13.307419   1.000000
    5      -11.554586   1.000000
    6      -11.554586   1.000000
    7      -11.069793   1.000000
    8       -1.382105   1.000000
    9       -0.017562   1.000000
   10       -0.017562   1.000000
   11        0.678993   1.000000
   12        0.696345   1.000000
   13        0.696345   1.000000
   14        1.167607   1.000000
   15        2.275033   1.000000
   16        2.275033   1.000000
   17        4.085674   1.000000
   18        5.688716   0.000000
   19        5.689741   0.000000
   20       10.396957   0.000000
 
  0.4761905E+00  0.0000000E+00  0.0000000E+00  0.6478782E-03
    1      -29.591875   1.000000
    2      -14.639427   1.000000
    3      -13.315404   1.000000
    4      -13.293726   1.000000
    5      -11.552314   1.000000
    6      -11.552314   1.000000
    7      -11.050373   1.000000
    8       -1.443500   1.000000
    9       -0.011258   1.000000
   10       -0.011258   1.000000
   11        0.620289   1.000000
   12        0.647832   1.000000
   13        0.647832   1.000000
   14        1.137510   1.000000
   15        2.264032   1.000000
   16        2.264032   1.000000
   17        4.090330   1.000000
   18        5.748407   0.000000
   19        5.748415   0.000000
   20       10.509610   0.000000
 
  0.4761905E-01  0.4761905E-01  0.0000000E+00  0.1295756E-02
    1      -29.614394   1.000000
    2      -14.489540   1.000000
    3      -13.364464   1.000000
    4      -13.356670   1.000000
    5      -11.601235   1.000000
    6      -11.593745   1.000000
    7      -11.579471   1.000000
    8       -0.089326   1.000000
    9       -0.048544   1.000000
   10       -0.037789   1.000000
   11        1.810788   1.000000
   12        1.853150   1.000000
   13        1.927874   1.000000
   14        2.544081   1.000000
   15        2.605472   1.000000
   16        2.626406   1.000000
   17        4.046527   1.000000
   18        4.062051   1.000000
   19        4.108271   1.000000
   20        8.756780   0.000000
 
  0.9523810E-01  0.4761905E-01  0.0000000E+00  0.2591513E-02
    1      -29.612873   1.000000
    2      -14.489224   1.000000
    3      -13.379589   1.000000
    4      -13.355001   1.000000
    5      -11.597935   1.000000
    6      -11.587790   1.000000
    7      -11.538155   1.000000
    8       -0.175383   1.000000
    9       -0.056523   1.000000
   10       -0.039371   1.000000
   11        1.674540   1.000000
   12        1.751238   1.000000
   13        1.902992   1.000000
   14        2.350605   1.000000
   15        2.539713   1.000000
   16        2.563824   1.000000
   17        4.058859   1.000000
   18        4.224776   1.000000
   19        4.260410   1.000000
   20        8.814925   0.000000
 
  0.1428571E+00  0.4761905E-01  0.0000000E+00  0.2591513E-02
    1      -29.610486   1.000000
    2      -14.491741   1.000000
    3      -13.397779   1.000000
    4      -13.350556   1.000000
    5      -11.592754   1.000000
    6      -11.582605   1.000000
    7      -11.472847   1.000000
    8       -0.316810   1.000000
    9       -0.061863   1.000000
   10       -0.041364   1.000000
   11        1.500242   1.000000
   12        1.599496   1.000000
   13        1.830740   1.000000
   14        2.079771   1.000000
   15        2.474776   1.000000
   16        2.494310   1.000000
   17        4.068357   1.000000
   18        4.453657   1.000000
   19        4.474393   1.000000
   20        9.003003   0.000000
 
  0.1904762E+00  0.4761905E-01  0.0000000E+00  0.2591513E-02
    1      -29.607446   1.000000
    2      -14.500660   1.000000
    3      -13.409537   1.000000
    4      -13.344721   1.000000
    5      -11.586140   1.000000
    6      -11.576419   1.000000
    7      -11.394772   1.000000
    8       -0.497688   1.000000
    9       -0.066774   1.000000
   10       -0.042868   1.000000
   11        1.302531   1.000000
   12        1.420802   1.000000
   13        1.706422   1.000000
   14        1.813296   1.000000
   15        2.414198   1.000000
   16        2.430028   1.000000
   17        4.080385   1.000000
   18        4.707133   0.993331
   19        4.717504   0.990043
   20        9.218718   0.000000
 
  0.2380952E+00  0.4761905E-01  0.0000000E+00  0.2591513E-02
    1      -29.604018   1.000000
    2      -14.517634   1.000000
    3      -13.408584   1.000000
    4      -13.338365   1.000000
    5      -11.578663   1.000000
    6      -11.569527   1.000000
    7      -11.312980   1.000000
    8       -0.701450   1.000000
    9       -0.070372   1.000000
   10       -0.042786   1.000000
   11        1.093505   1.000000
   12        1.235952   1.000000
   13        1.486701   1.000000
   14        1.650051   1.000000
   15        2.359886   1.000000
   16        2.373151   1.000000
   17        4.094064   1.000000
   18        4.961208   0.131671
   19        4.965166   0.120096
   20        9.576564   0.000000
 
  0.2857143E+00  0.4761905E-01  0.0000000E+00  0.2591513E-02
    1      -29.600509   1.000000
    2      -14.541829   1.000000
    3      -13.393859   1.000000
    4      -13.331701   1.000000
    5      -11.570978   1.000000
    6      -11.562464   1.000000
    7      -11.235041   1.000000
    8       -0.909835   1.000000
    9       -0.071096   1.000000
   10       -0.040038   1.000000
   11        0.884707   1.000000
   12        1.060219   1.000000
   13        1.267853   1.000000
   14        1.529323   1.000000
   15        2.312255   1.000000
   16        2.323867   1.000000
   17        4.108231   1.000000
   18        5.198677   0.000004
   19        5.199098   0.000004
   20        9.764268   0.000000
 
  0.3333333E+00  0.4761905E-01  0.0000000E+00  0.2591513E-02
    1      -29.597225   1.000000
    2      -14.569687   1.000000
    3      -13.369310   1.000000
    4      -13.325456   1.000000
    5      -11.563787   1.000000
    6      -11.555848   1.000000
    7      -11.166849   1.000000
    8       -1.104170   1.000000
    9       -0.067244   1.000000
   10       -0.033997   1.000000
   11        0.690632   1.000000
   12        0.904374   1.000000
   13        1.093564   1.000000
   14        1.424156   1.000000
   15        2.272107   1.000000
   16        2.282754   1.000000
   17        4.121624   1.000000
   18        5.404827   0.000000
   19        5.405971   0.000000
   20       10.034006   0.000000
 
  0.3809524E+00  0.4761905E-01  0.0000000E+00  0.2591513E-02
    1      -29.594467   1.000000
    2      -14.596086   1.000000
    3      -13.341685   1.000000
    4      -13.320073   1.000000
    5      -11.557722   1.000000
    6      -11.550261   1.000000
    7      -11.112573   1.000000
    8       -1.267090   1.000000
    9       -0.057710   1.000000
   10       -0.025072   1.000000
   11        0.526187   1.000000
   12        0.776799   1.000000
   13        0.965191   1.000000
   14        1.339067   1.000000
   15        2.240617   1.000000
   16        2.250816   1.000000
   17        4.132980   1.000000
   18        5.570617   0.000000
   19        5.572032   0.000000
   20        6.001591   0.000000
 
  0.4285714E+00  0.4761905E-01  0.0000000E+00  0.2591513E-02
    1      -29.592476   1.000000
    2      -14.616606   1.000000
    3      -13.319729   1.000000
    4      -13.314707   1.000000
    5      -11.553342   1.000000
    6      -11.546219   1.000000
    7      -11.075105   1.000000
    8       -1.384219   1.000000
    9       -0.043691   1.000000
   10       -0.015387   1.000000
   11        0.403785   1.000000
   12        0.685128   1.000000
   13        0.880510   1.000000
   14        1.279293   1.000000
   15        2.218900   1.000000
   16        2.228941   1.000000
   17        4.141226   1.000000
   18        5.687119   0.000000
   19        5.688049   0.000000
   20       10.416367   0.000000
 
  0.4761905E+00  0.4761905E-01  0.0000000E+00  0.2591513E-02
    1      -29.591434   1.000000
    2      -14.627844   1.000000
    3      -13.315088   1.000000
    4      -13.303925   1.000000
    5      -11.551056   1.000000
    6      -11.544094   1.000000
    7      -11.056048   1.000000
    8       -1.445401   1.000000
    9       -0.031624   1.000000
   10       -0.008787   1.000000
   11        0.336154   1.000000
   12        0.636691   1.000000
   13        0.838341   1.000000
   14        1.248502   1.000000
   15        2.207812   1.000000
   16        2.217821   1.000000
   17        4.145562   1.000000
   18        5.747395   0.000000
   19        5.747643   0.000000
   20        6.000982   0.000000
 
  0.9523810E-01  0.9523810E-01  0.0000000E+00  0.1295756E-02
    1      -29.611367   1.000000
    2      -14.486367   1.000000
    3      -13.391019   1.000000
    4      -13.357775   1.000000
    5      -11.594612   1.000000
    6      -11.565967   1.000000
    7      -11.515845   1.000000
    8       -0.235863   1.000000
    9       -0.090157   1.000000
   10       -0.040540   1.000000
   11        1.501104   1.000000
   12        1.663323   1.000000
   13        1.931596   1.000000
   14        2.239853   1.000000
   15        2.431166   1.000000
   16        2.489321   1.000000
   17        4.201629   1.000000
   18        4.253874   1.000000
   19        4.372904   1.000000
   20        8.923680   0.000000
 
  0.1428571E+00  0.9523810E-01  0.0000000E+00  0.2591513E-02
    1      -29.609006   1.000000
    2      -14.485029   1.000000
    3      -13.409894   1.000000
    4      -13.354218   1.000000
    5      -11.589405   1.000000
    6      -11.553867   1.000000
    7      -11.462216   1.000000
    8       -0.358532   1.000000
    9       -0.114637   1.000000
   10       -0.041877   1.000000
   11        1.297480   1.000000
   12        1.528020   1.000000
   13        1.895810   1.000000
   14        2.042133   1.000000
   15        2.350639   1.000000
   16        2.405684   1.000000
   17        4.229270   1.000000
   18        4.460520   1.000000
   19        4.546582   0.999999
   20        9.116470   0.000000
 
  0.1904762E+00  0.9523810E-01  0.0000000E+00  0.2591513E-02
    1      -29.605995   1.000000
    2      -14.488760   1.000000
    3      -13.424993   1.000000
    4      -13.347465   1.000000
    5      -11.582743   1.000000
    6      -11.546815   1.000000
    7      -11.390752   1.000000
    8       -0.527810   1.000000
    9       -0.132291   1.000000
   10       -0.042523   1.000000
   11        1.075998   1.000000
   12        1.363346   1.000000
   13        1.720245   1.000000
   14        1.916569   1.000000
   15        2.284617   1.000000
   16        2.329560   1.000000
   17        4.240148   1.000000
   18        4.710749   0.992314
   19        4.758746   0.959484
   20        9.333123   0.000000
 
  0.2380952E+00  0.9523810E-01  0.0000000E+00  0.2591513E-02
    1      -29.602605   1.000000
    2      -14.500009   1.000000
    3      -13.428462   1.000000
    4      -13.339326   1.000000
    5      -11.575207   1.000000
    6      -11.540750   1.000000
    7      -11.314275   1.000000
    8       -0.723044   1.000000
    9       -0.146769   1.000000
   10       -0.041421   1.000000
   11        0.847752   1.000000
   12        1.188717   1.000000
   13        1.496806   1.000000
   14        1.833315   1.000000
   15        2.226021   1.000000
   16        2.264270   1.000000
   17        4.251480   1.000000
   18        4.962887   0.126670
   19        4.985806   0.071270
   20        9.637401   0.000000
 
  0.2857143E+00  0.9523810E-01  0.0000000E+00  0.2591513E-02
    1      -29.599131   1.000000
    2      -14.518913   1.000000
    3      -13.418284   1.000000
    4      -13.330937   1.000000
    5      -11.567472   1.000000
    6      -11.535062   1.000000
    7      -11.241010   1.000000
    8       -0.925005   1.000000
    9       -0.157342   1.000000
   10       -0.037520   1.000000
   11        0.625860   1.000000
   12        1.019874   1.000000
   13        1.304870   1.000000
   14        1.746413   1.000000
   15        2.175229   1.000000
   16        2.209390   1.000000
   17        4.263096   1.000000
   18        5.198929   0.000004
   19        5.207394   0.000002
   20        9.897178   0.000000
 
  0.3333333E+00  0.9523810E-01  0.0000000E+00  0.2591513E-02
    1      -29.595882   1.000000
    2      -14.542258   1.000000
    3      -13.397428   1.000000
    4      -13.323225   1.000000
    5      -11.560230   1.000000
    6      -11.529873   1.000000
    7      -11.176780   1.000000
    8       -1.114848   1.000000
    9       -0.161150   1.000000
   10       -0.030200   1.000000
   11        0.423898   1.000000
   12        0.868381   1.000000
   13        1.154492   1.000000
   14        1.662875   1.000000
   15        2.132766   1.000000
   16        2.164706   1.000000
   17        4.274111   1.000000
   18        5.405198   0.000000
   19        5.406663   0.000000
   20       10.206885   0.000000
 
  0.3809524E+00  0.9523810E-01  0.0000000E+00  0.2591513E-02
    1      -29.593151   1.000000
    2      -14.565529   1.000000
    3      -13.372103   1.000000
    4      -13.317235   1.000000
    5      -11.554131   1.000000
    6      -11.525525   1.000000
    7      -11.125722   1.000000
    8       -1.274954   1.000000
    9       -0.154291   1.000000
   10       -0.019897   1.000000
   11        0.251929   1.000000
   12        0.743250   1.000000
   13        1.044594   1.000000
   14        1.592192   1.000000
   15        2.099434   1.000000
   16        2.130494   1.000000
   17        4.283509   1.000000
   18        5.569839   0.000000
   19        5.570522   0.000000
   20        6.153151   0.000000
 
  0.4285714E+00  0.9523810E-01  0.0000000E+00  0.2591513E-02
    1      -29.591179   1.000000
    2      -14.583842   1.000000
    3      -13.349025   1.000000
    4      -13.314014   1.000000
    5      -11.549725   1.000000
    6      -11.522363   1.000000
    7      -11.090439   1.000000
    8       -1.390543   1.000000
    9       -0.133059   1.000000
   10       -0.008886   1.000000
   11        0.115905   1.000000
   12        0.652620   1.000000
   13        0.972745   1.000000
   14        1.541437   1.000000
   15        2.076385   1.000000
   16        2.107309   1.000000
   17        4.290366   1.000000
   18        5.685913   0.000000
   19        5.686050   0.000000
   20       10.466626   0.000000
 
  0.4761905E+00  0.9523810E-01  0.0000000E+00  0.2591513E-02
    1      -29.590150   1.000000
    2      -14.594001   1.000000
    3      -13.334242   1.000000
    4      -13.313957   1.000000
    5      -11.547421   1.000000
    6      -11.520721   1.000000
    7      -11.072487   1.000000
    8       -1.451070   1.000000
    9       -0.100058   1.000000
   10       -0.001397   1.000000
   11        0.024173   1.000000
   12        0.604430   1.000000
   13        0.937226   1.000000
   14        1.515011   1.000000
   15        2.064557   1.000000
   16        2.095583   1.000000
   17        4.293982   1.000000
   18        5.745454   0.000000
   19        5.746387   0.000000
   20        6.151174   0.000000
 
  0.1428571E+00  0.1428571E+00  0.0000000E+00  0.1295756E-02
    1      -29.606685   1.000000
    2      -14.477075   1.000000
    3      -13.430999   1.000000
    4      -13.351750   1.000000
    5      -11.584134   1.000000
    6      -11.524203   1.000000
    7      -11.433264   1.000000
    8       -0.446541   1.000000
    9       -0.174270   1.000000
   10       -0.042180   1.000000
   11        1.069676   1.000000
   12        1.414477   1.000000
   13        1.898496   1.000000
   14        1.925609   1.000000
   15        2.259395   1.000000
   16        2.302646   1.000000
   17        4.414139   1.000000
   18        4.504844   1.000000
   19        4.671518   0.998551
   20        9.295600   0.000000
 
  0.1904762E+00  0.1428571E+00  0.0000000E+00  0.2591513E-02
    1      -29.603723   1.000000
    2      -14.472130   1.000000
    3      -13.451134   1.000000
    4      -13.344467   1.000000
    5      -11.577397   1.000000
    6      -11.507643   1.000000
    7      -11.379927   1.000000
    8       -0.586949   1.000000
    9       -0.221699   1.000000
   10       -0.041476   1.000000
   11        0.829391   1.000000
   12        1.270671   1.000000
   13        1.694731   1.000000
   14        1.922912   1.000000
   15        2.204250   1.000000
   16        2.207530   1.000000
   17        4.454921   1.000000
   18        4.719880   0.989115
   19        4.840251   0.723098
   20        9.511744   0.000000
 
  0.2380952E+00  0.1428571E+00  0.0000000E+00  0.2591513E-02
    1      -29.600388   1.000000
    2      -14.473824   1.000000
    3      -13.461484   1.000000
    4      -13.335254   1.000000
    5      -11.569790   1.000000
    6      -11.499558   1.000000
    7      -11.314745   1.000000
    8       -0.762947   1.000000
    9       -0.257647   1.000000
   10       -0.038782   1.000000
   11        0.588301   1.000000
   12        1.112539   1.000000
   13        1.494782   1.000000
   14        1.907663   1.000000
   15        2.126967   1.000000
   16        2.146438   1.000000
   17        4.466597   1.000000
   18        4.966483   0.116411
   19        5.034959   0.015327
   20        9.732656   0.000000
 
  0.2857143E+00  0.1428571E+00  0.0000000E+00  0.2591513E-02
    1      -29.596968   1.000000
    2      -14.483300   1.000000
    3      -13.457758   1.000000
    4      -13.325971   1.000000
    5      -11.561973   1.000000
    6      -11.494609   1.000000
    7      -11.249718   1.000000
    8       -0.951987   1.000000
    9       -0.285968   1.000000
   10       -0.033086   1.000000
   11        0.361051   1.000000
   12        0.955397   1.000000
   13        1.328309   1.000000
   14        1.884123   1.000000
   15        2.061011   1.000000
   16        2.081830   1.000000
   17        4.476280   1.000000
   18        5.199747   0.000004
   19        5.235226   0.000000
   20        9.951287   0.000000
 
  0.3333333E+00  0.1428571E+00  0.0000000E+00  0.2591513E-02
    1      -29.593774   1.000000
    2      -14.498760   1.000000
    3      -13.441660   1.000000
    4      -13.318433   1.000000
    5      -11.554655   1.000000
    6      -11.491034   1.000000
    7      -11.191940   1.000000
    8       -1.133343   1.000000
    9       -0.306798   1.000000
   10       -0.023774   1.000000
   11        0.161631   1.000000
   12        0.811538   1.000000
   13        1.199639   1.000000
   14        1.858405   1.000000
   15        2.008648   1.000000
   16        2.017265   1.000000
   17        4.485036   1.000000
   18        5.404230   0.000000
   19        5.421868   0.000000
   20       10.354424   0.000000
 
  0.3809524E+00  0.1428571E+00  0.0000000E+00  0.2591513E-02
    1      -29.591088   1.000000
    2      -14.516104   1.000000
    3      -13.418319   1.000000
    4      -13.314031   1.000000
    5      -11.548484   1.000000
    6      -11.488312   1.000000
    7      -11.145748   1.000000
    8       -1.288308   1.000000
    9       -0.317958   1.000000
   10       -0.011299   1.000000
   11       -0.000494   1.000000
   12        0.690804   1.000000
   13        1.106400   1.000000
   14        1.836172   1.000000
   15        1.960073   1.000000
   16        1.969360   1.000000
   17        4.492427   1.000000
   18        5.568379   0.000000
   19        5.578314   0.000000
   20        6.336989   0.000000
 
  0.4285714E+00  0.1428571E+00  0.0000000E+00  0.2591513E-02
    1      -29.589150   1.000000
    2      -14.530715   1.000000
    3      -13.394960   1.000000
    4      -13.313445   1.000000
    5      -11.544034   1.000000
    6      -11.486412   1.000000
    7      -11.113775   1.000000
    8       -1.401142   1.000000
    9       -0.316851   1.000000
   10       -0.120430   1.000000
   11        0.001859   1.000000
   12        0.602113   1.000000
   13        1.045700   1.000000
   14        1.821458   1.000000
   15        1.916322   1.000000
   16        1.943069   1.000000
   17        4.497814   1.000000
   18        5.683188   0.000000
   19        5.691158   0.000000
   20        6.337660   0.000000
 
  0.4761905E+00  0.1428571E+00  0.0000000E+00  0.2591513E-02
    1      -29.588135   1.000000
    2      -14.539026   1.000000
    3      -13.379479   1.000000
    4      -13.315116   1.000000
    5      -11.541718   1.000000
    6      -11.485407   1.000000
    7      -11.097475   1.000000
    8       -1.460517   1.000000
    9       -0.305492   1.000000
   10       -0.192083   1.000000
   11        0.010837   1.000000
   12        0.554391   1.000000
   13        1.015727   1.000000
   14        1.815155   1.000000
   15        1.891784   1.000000
   16        1.929863   1.000000
   17        4.500655   1.000000
   18        5.742247   0.000000
   19        5.750419   0.000000
   20       10.709414   0.000000
 
  0.1904762E+00  0.1904762E+00  0.0000000E+00  0.1295756E-02
    1      -29.600827   1.000000
    2      -14.455395   1.000000
    3      -13.479087   1.000000
    4      -13.336775   1.000000
    5      -11.570583   1.000000
    6      -11.473783   1.000000
    7      -11.354352   1.000000
    8       -0.686854   1.000000
    9       -0.309762   1.000000
   10       -0.039036   1.000000
   11        0.574463   1.000000
   12        1.149834   1.000000
   13        1.601981   1.000000
   14        1.855734   1.000000
   15        2.090505   1.000000
   16        2.214035   1.000000
   17        4.654602   0.999354
   18        4.770548   0.942696
   19        4.963556   0.124715
   20        9.633099   0.000000
 
  0.2380952E+00  0.1904762E+00  0.0000000E+00  0.2591513E-02
    1      -29.597559   1.000000
    2      -14.443238   1.000000
    3      -13.498716   1.000000
    4      -13.327612   1.000000
    5      -11.562872   1.000000
    6      -11.455306   1.000000
    7      -11.310664   1.000000
    8       -0.828594   1.000000
    9       -0.380157   1.000000
   10       -0.034313   1.000000
   11        0.322922   1.000000
   12        1.012251   1.000000
   13        1.462914   1.000000
   14        1.818272   1.000000
   15        1.989707   1.000000
   16        2.221955   1.000000
   17        4.702898   0.994370
   18        4.975331   0.093708
   19        5.119308   0.000398
   20        9.957531   0.000000
 
  0.2857143E+00  0.1904762E+00  0.0000000E+00  0.2591513E-02
    1      -29.594215   1.000000
    2      -14.438811   1.000000
    3      -13.504054   1.000000
    4      -13.319314   1.000000
    5      -11.554952   1.000000
    6      -11.447691   1.000000
    7      -11.259046   1.000000
    8       -0.994664   1.000000
    9       -0.434549   1.000000
   10       -0.026361   1.000000
   11        0.091793   1.000000
   12        0.871004   1.000000
   13        1.335329   1.000000
   14        1.794237   1.000000
   15        1.907449   1.000000
   16        2.208258   1.000000
   17        4.714503   0.991116
   18        5.201952   0.000003
   19        5.290690   0.000000
   20       10.288147   0.000000
 
  0.3333333E+00  0.1904762E+00  0.0000000E+00  0.2591513E-02
    1      -29.591087   1.000000
    2      -14.442151   1.000000
    3      -13.494386   1.000000