BEGIN_INFO
  # Launch as: xcrysden --bxsf ebands3d.bxsf
  Fermi Energy:     7.456204
END_INFO

BEGIN_BLOCK_BANDGRID_3D
  band_energies
  BANDGRID_3D_BANDS
    1
       21   21   21
          0.00000000      0.00000000      0.00000000
         -0.27533419      0.27533419      0.27533419
          0.27533419     -0.27533419      0.27533419
          0.27533419      0.27533419     -0.27533419
    BAND:     5
      5.23532600e+00  5.22912100e+00  5.21460000e+00  5.20537700e+00  5.22414600e+00  5.29028900e+00  5.39859000e+00  5.52415500e+00  5.64212900e+00  5.73222200e+00  6.33873300e+00  6.33873300e+00  5.73222200e+00  5.64212900e+00  5.52415500e+00  5.39859000e+00  5.29028900e+00  5.22414600e+00  5.20537700e+00  5.21460000e+00  5.22912100e+00
      5.22912100e+00  5.24708400e+00  5.25425000e+00  5.26073600e+00  5.28458800e+00  5.34426000e+00  5.44081800e+00  5.55529400e+00  5.68786100e+00  6.01988600e+00  6.56148500e+00  6.80755600e+00  6.39568200e+00  5.95929900e+00  5.73369900e+00  5.57223900e+00  5.43604100e+00  5.33304000e+00  5.27360000e+00  5.24993300e+00  5.24092000e+00
      5.21460000e+00  5.25425000e+00  5.28112400e+00  5.30229100e+00  5.33235300e+00  5.38874300e+00  5.47732400e+00  5.58366400e+00  5.82125000e+00  6.28939200e+00  6.94389700e+00  7.44547300e+00  7.19100700e+00  6.58236700e+00  6.13497300e+00  5.85304600e+00  5.64716100e+00  5.48547600e+00  5.36769500e+00  5.29390500e+00  5.24993300e+00
      5.20537700e+00  5.26073600e+00  5.30229100e+00  5.33463400e+00  5.36927500e+00  5.42271400e+00  5.50507300e+00  5.60623700e+00  5.94085400e+00  6.50742300e+00  7.27768400e+00  8.04829700e+00  8.07261700e+00  7.37017500e+00  6.70408100e+00  6.24696600e+00  5.93151300e+00  5.69218100e+00  5.50536400e+00  5.36769500e+00  5.27360000e+00
      5.22414600e+00  5.28458800e+00  5.33235300e+00  5.36927500e+00  5.40318700e+00  5.44947600e+00  5.52364500e+00  5.62073100e+00  6.02366600e+00  6.67094200e+00  7.53911700e+00  8.53182600e+00  9.00330200e+00  8.29799100e+00  7.43101600e+00  6.76814900e+00  6.30108500e+00  5.95816600e+00  5.69218100e+00  5.48547600e+00  5.33304000e+00
      5.29028900e+00  5.34426000e+00  5.38874300e+00  5.42271400e+00  5.44947600e+00  5.48047600e+00  5.53690500e+00  5.62626400e+00  6.06448900e+00  6.78476000e+00  7.73443700e+00  8.86953700e+00  9.85917200e+00  9.36360100e+00  8.32248600e+00  7.44642800e+00  6.78782500e+00  6.30108500e+00  5.93151300e+00  5.64716100e+00  5.43604100e+00
      5.39859000e+00  5.44081800e+00  5.47732400e+00  5.50507300e+00  5.52364500e+00  5.53690500e+00  5.56044100e+00  5.62518200e+00  6.06814400e+00  6.86440900e+00  7.88330900e+00  9.09332400e+00  1.03983200e+01  1.05625660e+01  9.38624500e+00  8.31580300e+00  7.44642800e+00  6.76814900e+00  6.24696600e+00  5.85304600e+00  5.57223900e+00
      5.52415500e+00  5.55529400e+00  5.58366400e+00  5.60623700e+00  5.62073100e+00  5.62626400e+00  5.62518200e+00  5.63570700e+00  6.07157300e+00  6.95059800e+00  8.01526300e+00  9.23959600e+00  1.05847910e+01  1.17811440e+01  1.06196910e+01  9.38624500e+00  8.32248600e+00  7.43101600e+00  6.70408100e+00  6.13497300e+00  5.73369900e+00
      5.64212900e+00  5.68786100e+00  5.82125000e+00  5.94085400e+00  6.02366600e+00  6.06448900e+00  6.06814400e+00  6.07157300e+00  6.35379400e+00  7.15403800e+00  8.17312000e+00  9.31133600e+00  1.04833920e+01  1.14983350e+01  1.17811440e+01  1.05625660e+01  9.36360100e+00  8.29799100e+00  7.37017500e+00  6.58236700e+00  5.95929900e+00
      5.73222200e+00  6.01988600e+00  6.28939200e+00  6.50742300e+00  6.67094200e+00  6.78476000e+00  6.86440900e+00  6.95059800e+00  7.15403800e+00  7.64569600e+00  8.40889100e+00  9.26883900e+00  1.00282010e+01  1.04833920e+01  1.05847910e+01  1.03983200e+01  9.85917200e+00  9.00330200e+00  8.07261700e+00  7.19100700e+00  6.39568200e+00
      6.33873300e+00  6.56148500e+00  6.94389700e+00  7.27768400e+00  7.53911700e+00  7.73443700e+00  7.88330900e+00  8.01526300e+00  8.17312000e+00  8.40889100e+00  8.73548000e+00  9.06467500e+00  9.26883900e+00  9.31133600e+00  9.23959600e+00  9.09332400e+00  8.86953700e+00  8.53182600e+00  8.04829700e+00  7.44547300e+00  6.80755600e+00
      6.33873300e+00  6.80755600e+00  7.44547300e+00  8.04829700e+00  8.53182600e+00  8.86953700e+00  9.09332400e+00  9.23959600e+00  9.31133600e+00  9.26883900e+00  9.06467500e+00  8.73548000e+00  8.40889100e+00  8.17312000e+00  8.01526300e+00  7.88330900e+00  7.73443700e+00  7.53911700e+00  7.27768400e+00  6.94389700e+00  6.56148500e+00
      5.73222200e+00  6.39568200e+00  7.19100700e+00  8.07261700e+00  9.00330200e+00  9.85917200e+00  1.03983200e+01  1.05847910e+01  1.04833920e+01  1.00282010e+01  9.26883900e+00  8.40889100e+00  7.64569600e+00  7.15403800e+00  6.95059800e+00  6.86440900e+00  6.78476000e+00  6.67094200e+00  6.50742300e+00  6.28939200e+00  6.01988600e+00
      5.64212900e+00  5.95929900e+00  6.58236700e+00  7.37017500e+00  8.29799100e+00  9.36360100e+00  1.05625660e+01  1.17811440e+01  1.14983350e+01  1.04833920e+01  9.31133600e+00  8.17312000e+00  7.15403800e+00  6.35379400e+00  6.07157300e+00  6.06814400e+00  6.06448900e+00  6.02366600e+00  5.94085400e+00  5.82125000e+00  5.68786100e+00
      5.52415500e+00  5.73369900e+00  6.13497300e+00  6.70408100e+00  7.43101600e+00  8.32248600e+00  9.38624500e+00  1.06196910e+01  1.17811440e+01  1.05847910e+01  9.23959600e+00  8.01526300e+00  6.95059800e+00  6.07157300e+00  5.63570700e+00  5.62518200e+00  5.62626400e+00  5.62073100e+00  5.60623700e+00  5.58366400e+00  5.55529400e+00
      5.39859000e+00  5.57223900e+00  5.85304600e+00  6.24696600e+00  6.76814900e+00  7.44642800e+00  8.31580300e+00  9.38624500e+00  1.05625660e+01  1.03983200e+01  9.09332400e+00  7.88330900e+00  6.86440900e+00  6.06814400e+00  5.62518200e+00  5.56044100e+00  5.53690500e+00  5.52364500e+00  5.50507300e+00  5.47732400e+00  5.44081800e+00
      5.29028900e+00  5.43604100e+00  5.64716100e+00  5.93151300e+00  6.30108500e+00  6.78782500e+00  7.44642800e+00  8.32248600e+00  9.36360100e+00  9.85917200e+00  8.86953700e+00  7.73443700e+00  6.78476000e+00  6.06448900e+00  5.62626400e+00  5.53690500e+00  5.48047600e+00  5.44947600e+00  5.42271400e+00  5.38874300e+00  5.34426000e+00
      5.22414600e+00  5.33304000e+00  5.48547600e+00  5.69218100e+00  5.95816600e+00  6.30108500e+00  6.76814900e+00  7.43101600e+00  8.29799100e+00  9.00330200e+00  8.53182600e+00  7.53911700e+00  6.67094200e+00  6.02366600e+00  5.62073100e+00  5.52364500e+00  5.44947600e+00  5.40318700e+00  5.36927500e+00  5.33235300e+00  5.28458800e+00
      5.20537700e+00  5.27360000e+00  5.36769500e+00  5.50536400e+00  5.69218100e+00  5.93151300e+00  6.24696600e+00  6.70408100e+00  7.37017500e+00  8.07261700e+00  8.04829700e+00  7.27768400e+00  6.50742300e+00  5.94085400e+00  5.60623700e+00  5.50507300e+00  5.42271400e+00  5.36927500e+00  5.33463400e+00  5.30229100e+00  5.26073600e+00
      5.21460000e+00  5.24993300e+00  5.29390500e+00  5.36769500e+00  5.48547600e+00  5.64716100e+00  5.85304600e+00  6.13497300e+00  6.58236700e+00  7.19100700e+00  7.44547300e+00  6.94389700e+00  6.28939200e+00  5.82125000e+00  5.58366400e+00  5.47732400e+00  5.38874300e+00  5.33235300e+00  5.30229100e+00  5.28112400e+00  5.25425000e+00
      5.22912100e+00  5.24092000e+00  5.24993300e+00  5.27360000e+00  5.33304000e+00  5.43604100e+00  5.57223900e+00  5.73369900e+00  5.95929900e+00  6.39568200e+00  6.80755600e+00  6.56148500e+00  6.01988600e+00  5.68786100e+00  5.55529400e+00  5.44081800e+00  5.34426000e+00  5.28458800e+00  5.26073600e+00  5.25425000e+00  5.24708400e+00
      5.22912100e+00  5.24708400e+00  5.25425000e+00  5.26073600e+00  5.28458800e+00  5.34426000e+00  5.44081800e+00  5.55529400e+00  5.68786100e+00  6.01988600e+00  6.56148500e+00  6.80755600e+00  6.39568200e+00  5.95929900e+00  5.73369900e+00  5.57223900e+00  5.43604100e+00  5.33304000e+00  5.27360000e+00  5.24993300e+00  5.24092000e+00
      5.24708400e+00  5.22912100e+00  5.24092000e+00  5.24993300e+00  5.27360000e+00  5.33304000e+00  5.43604100e+00  5.57223900e+00  5.73369900e+00  5.95929900e+00  6.39568200e+00  6.80755600e+00  6.56148500e+00  6.01988600e+00  5.68786100e+00  5.55529400e+00  5.44081800e+00  5.34426000e+00  5.28458800e+00  5.26073600e+00  5.25425000e+00
      5.25425000e+00  5.24092000e+00  5.25425000e+00  5.27369000e+00  5.30338300e+00  5.36315600e+00  5.46577100e+00  5.60943000e+00  5.79937600e+00  6.09389000e+00  6.59886900e+00  7.17080900e+00  7.17080900e+00  6.59886900e+00  6.09389000e+00  5.79937600e+00  5.60943000e+00  5.46577100e+00  5.36315600e+00  5.30338300e+00  5.27369000e+00
      5.26073600e+00  5.24993300e+00  5.27369000e+00  5.30229100e+00  5.33613300e+00  5.39262100e+00  5.49022000e+00  5.63738300e+00  5.86023300e+00  6.23969400e+00  6.84742300e+00  7.59503300e+00  7.91741100e+00  7.38263600e+00  6.69601700e+00  6.21210900e+00  5.89812600e+00  5.67223800e+00  5.50045500e+00  5.37864700e+00  5.30338300e+00
      5.28458800e+00  5.27360000e+00  5.30338300e+00  5.33613300e+00  5.36927500e+00  5.41787000e+00  5.50529500e+00  5.65133400e+00  5.90537300e+00  6.36252400e+00  7.06282400e+00  7.95995000e+00  8.66631300e+00  8.29837900e+00  7.45583100e+00  6.76412700e+00  6.28631300e+00  5.94991800e+00  5.69536300e+00  5.50045500e+00  5.36315600e+00
      5.34426000e+00  5.33304000e+00  5.36315600e+00  5.39262100e+00  5.41787000e+00  5.44947600e+00  5.51451600e+00  5.64957400e+00  5.92684200e+00  6.45120900e+00  7.23227900e+00  8.23923700e+00  9.28372500e+00  9.32673900e+00  8.36841900e+00  7.47098100e+00  6.79640500e+00  6.31096600e+00  5.94991800e+00  5.67223800e+00  5.46577100e+00
      5.44081800e+00  5.43604100e+00  5.46577100e+00  5.49022000e+00  5.50529500e+00  5.51451600e+00  5.53690500e+00  5.63393500e+00  5.92345300e+00  6.50997700e+00  7.36450400e+00  8.44783000e+00  9.68283500e+00  1.04143000e+01  9.43705300e+00  8.35460300e+00  7.47201400e+00  6.79640500e+00  6.28631300e+00  5.89812600e+00  5.60943000e+00
      5.55529400e+00  5.57223900e+00  5.60943000e+00  5.63738300e+00  5.65133400e+00  5.64957400e+00  5.63393500e+00  5.62518200e+00  5.91221000e+00  6.56583600e+00  7.48507000e+00  8.61319700e+00  9.90714800e+00  1.12272690e+01  1.06638580e+01  9.42666400e+00  8.35460300e+00  7.47098100e+00  6.76412700e+00  6.21210900e+00  5.79937600e+00
      5.68786100e+00  5.73369900e+00  5.79937600e+00  5.86023300e+00  5.90537300e+00  5.92684200e+00  5.92345300e+00  5.91221000e+00  6.07157300e+00  6.71298700e+00  7.64558400e+00  8.75962100e+00  1.00007210e+01  1.12895380e+01  1.20435450e+01  1.06638580e+01  9.43705300e+00  8.36841900e+00  7.45583100e+00  6.69601700e+00  6.09389000e+00
      6.01988600e+00  5.95929900e+00  6.09389000e+00  6.23969400e+00  6.36252400e+00  6.45120900e+00  6.50997700e+00  6.56583600e+00  6.71298700e+00  7.15403800e+00  7.93182100e+00  8.89874600e+00  9.91854500e+00  1.08026820e+01  1.12895380e+01  1.12272690e+01  1.04143000e+01  9.32673900e+00  8.29837900e+00  7.38263600e+00  6.59886900e+00
      6.56148500e+00  6.39568200e+00  6.59886900e+00  6.84742300e+00  7.06282400e+00  7.23227900e+00  7.36450400e+00  7.48507000e+00  7.64558400e+00  7.93182100e+00  8.40889100e+00  9.01564000e+00  9.57799800e+00  9.91854500e+00  1.00007210e+01  9.90714800e+00  9.68283500e+00  9.28372500e+00  8.66631300e+00  7.91741100e+00  7.17080900e+00
      6.80755600e+00  6.80755600e+00  7.17080900e+00  7.59503300e+00  7.95995000e+00  8.23923700e+00  8.44783000e+00  8.61319700e+00  8.75962100e+00  8.89874600e+00  9.01564000e+00  9.06467500e+00  9.01564000e+00  8.89874600e+00  8.75962100e+00  8.61319700e+00  8.44783000e+00  8.23923700e+00  7.95995000e+00  7.59503300e+00  7.17080900e+00
      6.39568200e+00  6.56148500e+00  7.17080900e+00  7.91741100e+00  8.66631300e+00  9.28372500e+00  9.68283500e+00  9.90714800e+00  1.00007210e+01  9.91854500e+00  9.57799800e+00  9.01564000e+00  8.40889100e+00  7.93182100e+00  7.64558400e+00  7.48507000e+00  7.36450400e+00  7.23227900e+00  7.06282400e+00  6.84742300e+00  6.59886900e+00
      5.95929900e+00  6.01988600e+00  6.59886900e+00  7.38263600e+00  8.29837900e+00  9.32673900e+00  1.04143000e+01  1.12272690e+01  1.12895380e+01  1.08026820e+01  9.91854500e+00  8.89874600e+00  7.93182100e+00  7.15403800e+00  6.71298700e+00  6.56583600e+00  6.50997700e+00  6.45120900e+00  6.36252400e+00  6.23969400e+00  6.09389000e+00
      5.73369900e+00  5.68786100e+00  6.09389000e+00  6.69601700e+00  7.45583100e+00  8.36841900e+00  9.43705300e+00  1.06638580e+01  1.20435450e+01  1.12895380e+01  1.00007210e+01  8.75962100e+00  7.64558400e+00  6.71298700e+00  6.07157300e+00  5.91221000e+00  5.92345300e+00  5.92684200e+00  5.90537300e+00  5.86023300e+00  5.79937600e+00
      5.57223900e+00  5.55529400e+00  5.79937600e+00  6.21210900e+00  6.76412700e+00  7.47098100e+00  8.35460300e+00  9.42666400e+00  1.06638580e+01  1.12272690e+01  9.90714800e+00  8.61319700e+00  7.48507000e+00  6.56583600e+00  5.91221000e+00  5.62518200e+00  5.63393500e+00  5.64957400e+00  5.65133400e+00  5.63738300e+00  5.60943000e+00
      5.43604100e+00  5.44081800e+00  5.60943000e+00  5.89812600e+00  6.28631300e+00  6.79640500e+00  7.47201400e+00  8.35460300e+00  9.43705300e+00  1.04143000e+01  9.68283500e+00  8.44783000e+00  7.36450400e+00  6.50997700e+00  5.92345300e+00  5.63393500e+00  5.53690500e+00  5.51451600e+00  5.50529500e+00  5.49022000e+00  5.46577100e+00
      5.33304000e+00  5.34426000e+00  5.46577100e+00  5.67223800e+00  5.94991800e+00  6.31096600e+00  6.79640500e+00  7.47098100e+00  8.36841900e+00  9.32673900e+00  9.28372500e+00  8.23923700e+00  7.23227900e+00  6.45120900e+00  5.92684200e+00  5.64957400e+00  5.51451600e+00  5.44947600e+00  5.41787000e+00  5.39262100e+00  5.36315600e+00
      5.27360000e+00  5.28458800e+00  5.36315600e+00  5.50045500e+00  5.69536300e+00  5.94991800e+00  6.28631300e+00  6.76412700e+00  7.45583100e+00  8.29837900e+00  8.66631300e+00  7.95995000e+00  7.06282400e+00  6.36252400e+00  5.90537300e+00  5.65133400e+00  5.50529500e+00  5.41787000e+00  5.36927500e+00  5.33613300e+00  5.30338300e+00
      5.24993300e+00  5.26073600e+00  5.30338300e+00  5.37864700e+00  5.50045500e+00  5.67223800e+00  5.89812600e+00  6.21210900e+00  6.69601700e+00  7.38263600e+00  7.91741100e+00  7.59503300e+00  6.84742300e+00  6.23969400e+00  5.86023300e+00  5.63738300e+00  5.49022000e+00  5.39262100e+00  5.33613300e+00  5.30229100e+00  5.27369000e+00
      5.24092000e+00  5.25425000e+00  5.27369000e+00  5.30338300e+00  5.36315600e+00  5.46577100e+00  5.60943000e+00  5.79937600e+00  6.09389000e+00  6.59886900e+00  7.17080900e+00  7.17080900e+00  6.59886900e+00  6.09389000e+00  5.79937600e+00  5.60943000e+00  5.46577100e+00  5.36315600e+00  5.30338300e+00  5.27369000e+00  5.25425000e+00
      5.21460000e+00  5.25425000e+00  5.28112400e+00  5.30229100e+00  5.33235300e+00  5.38874300e+00  5.47732400e+00  5.58366400e+00  5.82125000e+00  6.28939200e+00  6.94389700e+00  7.44547300e+00  7.19100700e+00  6.58236700e+00  6.13497300e+00  5.85304600e+00  5.64716100e+00  5.48547600e+00  5.36769500e+00  5.29390500e+00  5.24993300e+00
      5.25425000e+00  5.24092000e+00  5.25425000e+00  5.27369000e+00  5.30338300e+00  5.36315600e+00  5.46577100e+00  5.60943000e+00  5.79937600e+00  6.09389000e+00  6.59886900e+00  7.17080900e+00  7.17080900e+00  6.59886900e+00  6.09389000e+00  5.79937600e+00  5.60943000e+00  5.46577100e+00  5.36315600e+00  5.30338300e+00  5.27369000e+00
      5.28112400e+00  5.25425000e+00  5.21460000e+00  5.24993300e+00  5.29390500e+00  5.36769500e+00  5.48547600e+00  5.64716100e+00  5.85304600e+00  6.13497300e+00  6.58236700e+00  7.19100700e+00  7.44547300e+00  6.94389700e+00  6.28939200e+00  5.82125000e+00  5.58366400e+00  5.47732400e+00  5.38874300e+00  5.33235300e+00  5.30229100e+00
      5.30229100e+00  5.27369000e+00  5.24993300e+00  5.26073600e+00  5.30338300e+00  5.37864700e+00  5.50045500e+00  5.67223800e+00  5.89812600e+00  6.21210900e+00  6.69601700e+00  7.38263600e+00  7.91741100e+00  7.59503300e+00  6.84742300e+00  6.23969400e+00  5.86023300e+00  5.63738300e+00  5.49022000e+00  5.39262100e+00  5.33613300e+00
      5.33235300e+00  5.30338300e+00  5.29390500e+00  5.30338300e+00  5.33235300e+00  5.39262100e+00  5.50578700e+00  5.68138400e+00  5.92730800e+00  6.28388500e+00  6.83021300e+00  7.60784700e+00  8.41443400e+00  8.41443400e+00  7.60784700e+00  6.83021300e+00  6.28388500e+00  5.92730800e+00  5.68138400e+00  5.50578700e+00  5.39262100e+00
      5.38874300e+00  5.36315600e+00  5.36769500e+00  5.37864700e+00  5.39262100e+00  5.42271400e+00  5.50529500e+00  5.67356100e+00  5.93758100e+00  6.33929500e+00  6.95215500e+00  7.81207900e+00  8.82411700e+00  9.31332600e+00  8.52324300e+00  7.57424700e+00  6.83519200e+00  6.31692800e+00  5.95123800e+00  5.68138400e+00  5.49022000e+00
      5.47732400e+00  5.46577100e+00  5.48547600e+00  5.50045500e+00  5.50578700e+00  5.50529500e+00  5.52364500e+00  5.64957400e+00  5.93043200e+00  6.38003400e+00  7.05906100e+00  7.98867200e+00  9.12228200e+00  1.01412310e+01  9.58425900e+00  8.48207400e+00  7.54837800e+00  6.83866700e+00  6.31692800e+00  5.92730800e+00  5.63738300e+00
      5.58366400e+00  5.60943000e+00  5.64716100e+00  5.67223800e+00  5.68138400e+00  5.67356100e+00  5.64957400e+00  5.62626400e+00  5.92345300e+00  6.42891100e+00  7.17040900e+00  8.15404900e+00  9.34484800e+00  1.06507960e+01  1.07841060e+01  9.56167600e+00  8.45518100e+00  7.54837800e+00  6.83519200e+00  6.28388500e+00  5.86023300e+00
      5.82125000e+00  5.79937600e+00  5.85304600e+00  5.89812600e+00  5.92730800e+00  5.93758100e+00  5.93043200e+00  5.92345300e+00  6.06814400e+00  6.56583600e+00  7.33660400e+00  8.33812800e+00  9.52610200e+00  1.08514680e+01  1.20272080e+01  1.08099510e+01  9.56167600e+00  8.48207400e+00  7.57424700e+00  6.83021300e+00  6.23969400e+00
      6.28939200e+00  6.09389000e+00  6.13497300e+00  6.21210900e+00  6.28388500e+00  6.33929500e+00  6.38003400e+00  6.42891100e+00  6.56583600e+00  6.95059800e+00  7.64558400e+00  8.57827900e+00  9.66515600e+00  1.08064830e+01  1.17927940e+01  1.20272080e+01  1.07841060e+01  9.58425900e+00  8.52324300e+00  7.60784700e+00  6.84742300e+00
      6.94389700e+00  6.59886900e+00  6.58236700e+00  6.69601700e+00  6.83021300e+00  6.95215500e+00  7.05906100e+00  7.17040900e+00  7.33660400e+00  7.64558400e+00  8.17312000e+00  8.89874600e+00  9.70958200e+00  1.04170210e+01  1.08064830e+01  1.08514680e+01  1.06507960e+01  1.01412310e+01  9.31332600e+00  8.41443400e+00  7.59503300e+00
      7.44547300e+00  7.17080900e+00  7.19100700e+00  7.38263600e+00  7.60784700e+00  7.81207900e+00  7.98867200e+00  8.15404900e+00  8.33812800e+00  8.57827900e+00  8.89874600e+00  9.26883900e+00  9.57799800e+00  9.70958200e+00  9.66515600e+00  9.52610200e+00  9.34484800e+00  9.12228200e+00  8.82411700e+00  8.41443400e+00  7.91741100e+00
      7.19100700e+00  7.17080900e+00  7.44547300e+00  7.91741100e+00  8.41443400e+00  8.82411700e+00  9.12228200e+00  9.34484800e+00  9.52610200e+00  9.66515600e+00  9.70958200e+00  9.57799800e+00  9.26883900e+00  8.89874600e+00  8.57827900e+00  8.33812800e+00  8.15404900e+00  7.98867200e+00  7.81207900e+00  7.60784700e+00  7.38263600e+00
      6.58236700e+00  6.59886900e+00  6.94389700e+00  7.59503300e+00  8.41443400e+00  9.31332600e+00  1.01412310e+01  1.06507960e+01  1.08514680e+01  1.08064830e+01  1.04170210e+01  9.70958200e+00  8.89874600e+00  8.17312000e+00  7.64558400e+00  7.33660400e+00  7.17040900e+00  7.05906100e+00  6.95215500e+00  6.83021300e+00  6.69601700e+00
      6.13497300e+00  6.09389000e+00  6.28939200e+00  6.84742300e+00  7.60784700e+00  8.52324300e+00  9.58425900e+00  1.07841060e+01  1.20272080e+01  1.17927940e+01  1.08064830e+01  9.66515600e+00  8.57827900e+00  7.64558400e+00  6.95059800e+00  6.56583600e+00  6.42891100e+00  6.38003400e+00  6.33929500e+00  6.28388500e+00  6.21210900e+00
      5.85304600e+00  5.79937600e+00  5.82125000e+00  6.23969400e+00  6.83021300e+00  7.57424700e+00  8.48207400e+00  9.56167600e+00  1.08099510e+01  1.20272080e+01  1.08514680e+01  9.52610200e+00  8.33812800e+00  7.33660400e+00  6.56583600e+00  6.06814400e+00  5.92345300e+00  5.93043200e+00  5.93758100e+00  5.92730800e+00  5.89812600e+00
      5.64716100e+00  5.60943000e+00  5.58366400e+00  5.86023300e+00  6.28388500e+00  6.83519200e+00  7.54837800e+00  8.45518100e+00  9.56167600e+00  1.07841060e+01  1.06507960e+01  9.34484800e+00  8.15404900e+00  7.17040900e+00  6.42891100e+00  5.92345300e+00  5.62626400e+00  5.64957400e+00  5.67356100e+00  5.68138400e+00  5.67223800e+00
      5.48547600e+00  5.46577100e+00  5.47732400e+00  5.63738300e+00  5.92730800e+00  6.31692800e+00  6.83866700e+00  7.54837800e+00  8.48207400e+00  9.58425900e+00  1.01412310e+01  9.12228200e+00  7.98867200e+00  7.05906100e+00  6.38003400e+00  5.93043200e+00  5.64957400e+00  5.52364500e+00  5.50529500e+00  5.50578700e+00  5.50045500e+00
      5.36769500e+00  5.36315600e+00  5.38874300e+00  5.49022000e+00  5.68138400e+00  5.95123800e+00  6.31692800e+00  6.83519200e+00  7.57424700e+00  8.52324300e+00  9.31332600e+00  8.82411700e+00  7.81207900e+00  6.95215500e+00  6.33929500e+00  5.93758100e+00  5.67356100e+00  5.50529500e+00  5.42271400e+00  5.39262100e+00  5.37864700e+00
      5.29390500e+00  5.30338300e+00  5.33235300e+00  5.39262100e+00  5.50578700e+00  5.68138400e+00  5.92730800e+00  6.28388500e+00  6.83021300e+00  7.60784700e+00  8.41443400e+00  8.41443400e+00  7.60784700e+00  6.83021300e+00  6.28388500e+00  5.92730800e+00  5.68138400e+00  5.50578700e+00  5.39262100e+00  5.33235300e+00  5.30338300e+00
      5.24993300e+00  5.27369000e+00  5.30229100e+00  5.33613300e+00  5.39262100e+00  5.49022000e+00  5.63738300e+00  5.86023300e+00  6.23969400e+00  6.84742300e+00  7.59503300e+00  7.91741100e+00  7.38263600e+00  6.69601700e+00  6.21210900e+00  5.89812600e+00  5.67223800e+00  5.50045500e+00  5.37864700e+00  5.30338300e+00  5.26073600e+00
      5.20537700e+00  5.26073600e+00  5.30229100e+00  5.33463400e+00  5.36927500e+00  5.42271400e+00  5.50507300e+00  5.60623700e+00  5.94085400e+00  6.50742300e+00  7.27768400e+00  8.04829700e+00  8.07261700e+00  7.37017500e+00  6.70408100e+00  6.24696600e+00  5.93151300e+00  5.69218100e+00  5.50536400e+00  5.36769500e+00  5.27360000e+00
      5.26073600e+00  5.24993300e+00  5.27369000e+00  5.30229100e+00  5.33613300e+00  5.39262100e+00  5.49022000e+00  5.63738300e+00  5.86023300e+00  6.23969400e+00  6.84742300e+00  7.59503300e+00  7.91741100e+00  7.38263600e+00  6.69601700e+00  6.21210900e+00  5.89812600e+00  5.67223800e+00  5.50045500e+00  5.37864700e+00  5.30338300e+00
      5.30229100e+00  5.27369000e+00  5.24993300e+00  5.26073600e+00  5.30338300e+00  5.37864700e+00  5.50045500e+00  5.67223800e+00  5.89812600e+00  6.21210900e+00  6.69601700e+00  7.38263600e+00  7.91741100e+00  7.59503300e+00  6.84742300e+00  6.23969400e+00  5.86023300e+00  5.63738300e+00  5.49022000e+00  5.39262100e+00  5.33613300e+00
      5.33463400e+00  5.30229100e+00  5.26073600e+00  5.20537700e+00  5.27360000e+00  5.36769500e+00  5.50536400e+00  5.69218100e+00  5.93151300e+00  6.24696600e+00  6.70408100e+00  7.37017500e+00  8.07261700e+00  8.04829700e+00  7.27768400e+00  6.50742300e+00  5.94085400e+00  5.60623700e+00  5.50507300e+00  5.42271400e+00  5.36927500e+00
      5.36927500e+00  5.33613300e+00  5.30338300e+00  5.27360000e+00  5.28458800e+00  5.36315600e+00  5.50045500e+00  5.69536300e+00  5.94991800e+00  6.28631300e+00  6.76412700e+00  7.45583100e+00  8.29837900e+00  8.66631300e+00  7.95995000e+00  7.06282400e+00  6.36252400e+00  5.90537300e+00  5.65133400e+00  5.50529500e+00  5.41787000e+00
      5.42271400e+00  5.39262100e+00  5.37864700e+00  5.36769500e+00  5.36315600e+00  5.38874300e+00  5.49022000e+00  5.68138400e+00  5.95123800e+00  6.31692800e+00  6.83519200e+00  7.57424700e+00  8.52324300e+00  9.31332600e+00  8.82411700e+00  7.81207900e+00  6.95215500e+00  6.33929500e+00  5.93758100e+00  5.67356100e+00  5.50529500e+00
      5.50507300e+00  5.49022000e+00  5.50045500e+00  5.50536400e+00  5.50045500e+00  5.49022000e+00  5.50507300e+00  5.65133400e+00  5.93758100e+00  6.34087600e+00  6.91023200e+00  7.70398600e+00  8.72724100e+00  9.82960100e+00  9.82960100e+00  8.72724100e+00  7.70398600e+00  6.91023200e+00  6.34087600e+00  5.93758100e+00  5.65133400e+00
      5.60623700e+00  5.63738300e+00  5.67223800e+00  5.69218100e+00  5.69536300e+00  5.68138400e+00  5.65133400e+00  5.62073100e+00  5.92684200e+00  6.38003400e+00  7.00584000e+00  7.85248100e+00  8.92385700e+00  1.01663490e+01  1.09172370e+01  9.80378200e+00  8.63611500e+00  7.66615500e+00  6.91023200e+00  6.33929500e+00  5.90537300e+00
      5.94085400e+00  5.86023300e+00  5.89812600e+00  5.93151300e+00  5.94991800e+00  5.95123800e+00  5.93758100e+00  5.92684200e+00  6.06448900e+00  6.50997700e+00  7.17040900e+00  8.04892300e+00  9.13695600e+00  1.04042480e+01  1.17305890e+01  1.10391570e+01  9.75448400e+00  8.63611500e+00  7.70398600e+00  6.95215500e+00  6.36252400e+00
      6.50742300e+00  6.23969400e+00  6.21210900e+00  6.24696600e+00  6.28631300e+00  6.31692800e+00  6.34087600e+00  6.38003400e+00  6.50997700e+00  6.86440900e+00  7.48507000e+00  8.33812800e+00  9.38557000e+00  1.05813520e+01  1.18426360e+01  1.24246080e+01  1.10391570e+01  9.80378200e+00  8.72724100e+00  7.81207900e+00  7.06282400e+00
      7.27768400e+00  6.84742300e+00  6.69601700e+00  6.70408100e+00  6.76412700e+00  6.83519200e+00  6.91023200e+00  7.00584000e+00  7.17040900e+00  7.48507000e+00  8.01526300e+00  8.75962100e+00  9.66515600e+00  1.06319040e+01  1.14541940e+01  1.18426360e+01  1.17305890e+01  1.09172370e+01  9.82960100e+00  8.82411700e+00  7.95995000e+00
      8.04829700e+00  7.59503300e+00  7.38263600e+00  7.37017500e+00  7.45583100e+00  7.57424700e+00  7.70398600e+00  7.85248100e+00  8.04892300e+00  8.33812800e+00  8.75962100e+00  9.31133600e+00  9.91854500e+00  1.04170210e+01  1.06319040e+01  1.05813520e+01  1.04042480e+01  1.01663490e+01  9.82960100e+00  9.31332600e+00  8.66631300e+00
      8.07261700e+00  7.91741100e+00  7.91741100e+00  8.07261700e+00  8.29837900e+00  8.52324300e+00  8.72724100e+00  8.92385700e+00  9.13695600e+00  9.38557000e+00  9.66515600e+00  9.91854500e+00  1.00282010e+01  9.91854500e+00  9.66515600e+00  9.38557000e+00  9.13695600e+00  8.92385700e+00  8.72724100e+00  8.52324300e+00  8.29837900e+00
      7.37017500e+00  7.38263600e+00  7.59503300e+00  8.04829700e+00  8.66631300e+00  9.31332600e+00  9.82960100e+00  1.01663490e+01  1.04042480e+01  1.05813520e+01  1.06319040e+01  1.04170210e+01  9.91854500e+00  9.31133600e+00  8.75962100e+00  8.33812800e+00  8.04892300e+00  7.85248100e+00  7.70398600e+00  7.57424700e+00  7.45583100e+00
      6.70408100e+00  6.69601700e+00  6.84742300e+00  7.27768400e+00  7.95995000e+00  8.82411700e+00  9.82960100e+00  1.09172370e+01  1.17305890e+01  1.18426360e+01  1.14541940e+01  1.06319040e+01  9.66515600e+00  8.75962100e+00  8.01526300e+00  7.48507000e+00  7.17040900e+00  7.00584000e+00  6.91023200e+00  6.83519200e+00  6.76412700e+00
      6.24696600e+00  6.21210900e+00  6.23969400e+00  6.50742300e+00  7.06282400e+00  7.81207900e+00  8.72724100e+00  9.80378200e+00  1.10391570e+01  1.24246080e+01  1.18426360e+01  1.05813520e+01  9.38557000e+00  8.33812800e+00  7.48507000e+00  6.86440900e+00  6.50997700e+00  6.38003400e+00  6.34087600e+00  6.31692800e+00  6.28631300e+00
      5.93151300e+00  5.89812600e+00  5.86023300e+00  5.94085400e+00  6.36252400e+00  6.95215500e+00  7.70398600e+00  8.63611500e+00  9.75448400e+00  1.10391570e+01  1.17305890e+01  1.04042480e+01  9.13695600e+00  8.04892300e+00  7.17040900e+00  6.50997700e+00  6.06448900e+00  5.92684200e+00  5.93758100e+00  5.95123800e+00  5.94991800e+00
      5.69218100e+00  5.67223800e+00  5.63738300e+00  5.60623700e+00  5.90537300e+00  6.33929500e+00  6.91023200e+00  7.66615500e+00  8.63611500e+00  9.80378200e+00  1.09172370e+01  1.01663490e+01  8.92385700e+00  7.85248100e+00  7.00584000e+00  6.38003400e+00  5.92684200e+00  5.62073100e+00  5.65133400e+00  5.68138400e+00  5.69536300e+00
      5.50536400e+00  5.50045500e+00  5.49022000e+00  5.50507300e+00  5.65133400e+00  5.93758100e+00  6.34087600e+00  6.91023200e+00  7.70398600e+00  8.72724100e+00  9.82960100e+00  9.82960100e+00  8.72724100e+00  7.70398600e+00  6.91023200e+00  6.34087600e+00  5.93758100e+00  5.65133400e+00  5.50507300e+00  5.49022000e+00  5.50045500e+00
      5.36769500e+00  5.37864700e+00  5.39262100e+00  5.42271400e+00  5.50529500e+00  5.67356100e+00  5.93758100e+00  6.33929500e+00  6.95215500e+00  7.81207900e+00  8.82411700e+00  9.31332600e+00  8.52324300e+00  7.57424700e+00  6.83519200e+00  6.31692800e+00  5.95123800e+00  5.68138400e+00  5.49022000e+00  5.38874300e+00  5.36315600e+00
      5.27360000e+00  5.30338300e+00  5.33613300e+00  5.36927500e+00  5.41787000e+00  5.50529500e+00  5.65133400e+00  5.90537300e+00  6.36252400e+00  7.06282400e+00  7.95995000e+00  8.66631300e+00  8.29837900e+00  7.45583100e+00  6.76412700e+00  6.28631300e+00  5.94991800e+00  5.69536300e+00  5.50045500e+00  5.36315600e+00  5.28458800e+00
      5.22414600e+00  5.28458800e+00  5.33235300e+00  5.36927500e+00  5.40318700e+00  5.44947600e+00  5.52364500e+00  5.62073100e+00  6.02366600e+00  6.67094200e+00  7.53911700e+00  8.53182600e+00  9.00330200e+00  8.29799100e+00  7.43101600e+00  6.76814900e+00  6.30108500e+00  5.95816600e+00  5.69218100e+00  5.48547600e+00  5.33304000e+00
      5.28458800e+00  5.27360000e+00  5.30338300e+00  5.33613300e+00  5.36927500e+00  5.41787000e+00  5.50529500e+00  5.65133400e+00  5.90537300e+00  6.36252400e+00  7.06282400e+00  7.95995000e+00  8.66631300e+00  8.29837900e+00  7.45583100e+00  6.76412700e+00  6.28631300e+00  5.94991800e+00  5.69536300e+00  5.50045500e+00  5.36315600e+00