    1    1 1000    1
  0.1197732E+02  0.2568176E-09  0.2568176E-09  0.2568176E-09  0.5000000E-15
  1.000000000000000E-004
  CAR 
 fcc copper                              
   11  286   12
 
  0.3742002E-15  0.3742002E-15  0.3742002E-15  0.1079797E-03
   1       -1.835058
   2        4.425966
   3        4.425970
   4        4.425970
   5        5.235326
   6        5.235326
   7       29.895653
   8       32.425637
   9       32.425674
  10       32.425685
  11       34.907028
  12       34.907063
 
  0.4761905E-01  0.3712308E-15  0.3712308E-15  0.8638376E-03
   1       -1.753154
   2        4.408741
   3        4.441552
   4        4.441555
   5        5.229121
   6        5.229121
   7       29.445080
   8       31.280182
   9       32.145006
  10       32.145040
  11       35.305804
  12       35.305966
 
  0.9523810E-01  0.3816392E-15  0.3816392E-15  0.8638376E-03
   1       -1.509372
   2        4.360421
   3        4.483628
   4        4.483630
   5        5.214598
   6        5.214600
   7       27.566975
   8       30.632301
   9       31.587902
  10       31.587934
  11       36.194588
  12       36.196697
 
  0.1428571E+00  0.3747003E-15  0.3747003E-15  0.8638376E-03
   1       -1.110126
   2        4.291853
   3        4.537692
   4        4.537692
   5        5.205372
   6        5.205377
   7       25.138539
   8       30.411216
   9       31.018839
  10       31.019432
  11       36.791820
  12       37.135042
 
  0.1904762E+00  0.3747003E-15  0.3747003E-15  0.8638376E-03
   1       -0.568525
   2        4.221556
   3        4.578882
   4        4.578884
   5        5.224137
   6        5.224146
   7       22.606361
   8       30.170305
   9       30.516791
  10       30.516819
  11       36.744348
  12       37.035444
 
  0.2380952E+00  0.3191891E-15  0.3191891E-15  0.8638376E-03
   1        0.090024
   2        4.180326
   3        4.584475
   4        4.584478
   5        5.290277
   6        5.290289
   7       19.516059
   8       29.849184
   9       30.102341
  10       30.102347
  11       35.958211
  12       35.958640
 
  0.2857143E+00  0.3330669E-15  0.3330669E-15  0.8638376E-03
   1        0.814545
   2        4.219293
   3        4.554659
   4        4.554663
   5        5.398575
   6        5.398590
   7       16.683079
   8       29.473900
   9       29.779113
  10       29.779121
  11       34.854426
  12       34.854505
 
  0.3333333E+00  0.3608225E-15  0.3608225E-15  0.8638376E-03
   1        1.504859
   2        4.429809
   3        4.506699
   4        4.506703
   5        5.524138
   6        5.524155
   7       15.810787
   8       29.097676
   9       29.543781
  10       29.543805
  11       33.896447
  12       33.896506
 
  0.3809524E+00  0.3053113E-15  0.3053113E-15  0.8638376E-03
   1        2.018655
   2        4.458060
   3        4.458063
   4        4.923506
   5        5.642112
   6        5.642129
   7       13.990619
   8       28.772010
   9       29.388488
  10       29.388531
  11       33.133715
  12       33.133793
 
  0.4285714E+00  0.3330669E-15  0.3330669E-15  0.8638376E-03
   1        2.294735
   2        4.419817
   3        4.419821
   4        5.671521
   5        5.732203
   6        5.732222
   7       12.342859
   8       28.535094
   9       29.300381
  10       29.300441
  11       32.599290
  12       32.599392
 
  0.4761905E+00  0.3885781E-15  0.3885781E-15  0.8638376E-03
   1        2.400532
   2        4.399172
   3        4.399175
   4        5.780973
   5        5.780993
   6        6.338733
   7       11.255931
   8       28.410922
   9       29.262930
  10       29.263001
  11       32.322336
  12       32.322442
 
  0.4761905E-01  0.4761905E-01  0.3729628E-15  0.6478782E-03
   1       -1.725877
   2        4.393979
   3        4.451612
   4        4.451614
   5        5.206392
   6        5.247084
   7       29.510504
   8       31.324889
   9       31.326021
  10       31.973981
  11       35.524491
  12       36.063281
 
  0.9523810E-01  0.4761905E-01  0.3712308E-15  0.2591513E-02
   1       -1.536153
   2        4.350749
   3        4.487356
   4        4.489848
   5        5.173795
   6        5.254250
   7       28.328770
   8       30.270869
   9       30.528115
  10       32.242543
  11       35.513852
  12       37.034229
 
  0.1428571E+00  0.4761905E-01  0.3747003E-15  0.2591513E-02
   1       -1.188757
   2        4.286449
   3        4.539321
   4        4.543551
   5        5.142541
   6        5.260736
   7       26.013346
   8       29.823048
   9       29.837819
  10       32.675095
  11       35.178116
  12       37.522321
 
  0.1904762E+00  0.4761905E-01  0.3885781E-15  0.2591513E-02
   1       -0.694238
   2        4.213534
   3        4.585829
   4        4.591088
   5        5.138037
   6        5.284588
   7       23.530119
   8       29.229828
   9       29.503825
  10       32.805543
  11       34.645575
  12       37.568843
 
  0.2380952E+00  0.4761905E-01  0.3747003E-15  0.2591513E-02
   1       -0.073039
   2        4.155954
   3        4.595197
   4        4.609906
   5        5.192615
   6        5.344260
   7       20.732685
   8       28.756736
   9       29.178442
  10       32.391353
  11       34.178714
  12       37.410651
 
  0.2857143E+00  0.4761905E-01  0.3191891E-15  0.2591513E-02
   1        0.634416
   2        4.153409
   3        4.560977
   4        4.593057
   5        5.312119
   6        5.440818
   7       17.609459
   8       28.409150
   9       28.865688
  10       31.591365
  11       33.822821
  12       36.541653
 
  0.3333333E+00  0.4761905E-01  0.3330669E-15  0.2591513E-02
   1        1.346799
   2        4.274268
   3        4.504726
   4        4.552185
   5        5.477826
   6        5.555294
   7       16.238126
   8       28.192955
   9       28.577748
  10       30.708755
  11       33.512584
  12       35.523560
 
  0.3809524E+00  0.4761905E-01  0.3608225E-15  0.2591513E-02
   1        1.928226
   2        4.446721
   3        4.503668
   4        4.607835
   5        5.663696
   6        5.687861
   7       14.659246
   8       28.115437
   9       28.322371
  10       29.896875
  11       33.284847
  12       34.630921
 
  0.4285714E+00  0.4761905E-01  0.3885781E-15  0.2591513E-02
   1        2.274677
   2        4.400968
   3        4.460340
   4        5.096330
   5        5.745501
   6        6.019886
   7       12.893465
   8       28.088716
   9       28.184420
  10       29.247132
  11       33.177626
  12       33.884867
 
  0.4761905E+00  0.4761905E-01  0.3608225E-15  0.2591513E-02
   1        2.424048
   2        4.374150
   3        4.431156
   4        5.414930
   5        5.786301
   6        6.561485
   7       11.553904
   8       27.833330
   9       28.405954
  10       28.852347
  11       33.207903
  12       33.294720
 
 -0.4761905E+00  0.4761905E-01  0.4440892E-15  0.2591513E-02
   1        2.455218
   2        4.369667
   3        4.421125
   4        5.495749
   5        5.778657
   6        6.807556
   7       11.132304
   8       27.547196
   9       28.751493
  10       28.780352
  11       32.866921
  12       33.376619
 
 -0.4285714E+00  0.4761905E-01  0.4163336E-15  0.2591513E-02
   1        2.390809
   2        4.387689
   3        4.432209
   4        5.373327
   5        5.721820
   6        6.395682
   7       11.930654
   8       27.307858
   9       28.880223
  10       29.295590
  11       32.613558
  12       33.673115
 
 -0.3809524E+00  0.4761905E-01  0.3608225E-15  0.2591513E-02
   1        2.186042
   2        4.425285
   3        4.463101
   4        4.958343
   5        5.622706
   6        5.959299
   7       13.450219
   8       27.174494
   9       29.175336
  10       29.913745
  11       32.566153
  12       34.072460
 
 -0.3333333E+00  0.4761905E-01  0.3608225E-15  0.2591513E-02
   1        1.758682
   2        4.470109
   3        4.486726
   4        4.509401
   5        5.494245
   6        5.733699
   7       15.292365
   8       27.165573
   9       29.596376
  10       30.550604
  11       32.797463
  12       34.524228
 
 -0.2857143E+00  0.4761905E-01  0.3608225E-15  0.2591513E-02
   1        1.116769
   2        4.221212
   3        4.530598
   4        4.561437
   5        5.354888
   6        5.572239
   7       16.606175
   8       27.281418
   9       30.100301
  10       31.094270
  11       33.402560
  12       34.941371
 
 -0.2380952E+00  0.4761905E-01  0.3330669E-15  0.2591513E-02
   1        0.393105
   2        4.150357
   3        4.573983
   4        4.602806
   5        5.230664
   6        5.436041
   7       18.631181
   8       27.516010
   9       30.624536
  10       31.528461
  11       34.373309
  12       35.234622
 
 -0.1904762E+00  0.4761905E-01  0.3469447E-15  0.2591513E-02
   1       -0.292217
   2        4.177102
   3        4.590067
   4        4.609677
   5        5.152690
   6        5.333040
   7       21.723195
   8       27.862044
   9       31.079841
  10       31.930416
  11       35.413998
  12       35.568059
 
 -0.1428571E+00  0.4761905E-01  0.3885781E-15  0.2591513E-02
   1       -0.874471
   2        4.243937
   3        4.569639
   4        4.571650
   5        5.136909
   6        5.273600
   7       24.363694
   8       28.315725
   9       31.374646
  10       32.342666
  11       35.590829
  12       36.354045
 
 -0.9523810E-01  0.4761905E-01  0.3747003E-15  0.2591513E-02
   1       -1.321639
   2        4.317147
   3        4.512712
   4        4.523216
   5        5.162218
   6        5.249933
   7       26.805517
   8       28.903367
   9       31.486007
  10       32.711082
  11       35.560318
  12       35.793027
 
 -0.4761905E-01  0.4761905E-01  0.3816392E-15  0.1295756E-02
   1       -1.617311
   2        4.376467
   3        4.463696
   4        4.473683
   5        5.198718
   6        5.240920
   7       28.731150
   8       29.988374
   9       31.522028
  10       32.735641
  11       35.018388
  12       35.874053
 
  0.9523810E-01  0.9523810E-01  0.3761130E-15  0.6478782E-03
   1       -1.401383
   2        4.301351
   3        4.527403
   4        4.527405
   5        5.123887
   6        5.281124
   7       28.694203
   8       29.581543
   9       29.581563
  10       30.955438
  11       37.034082
  12       37.090803
 
  0.1428571E+00  0.9523810E-01  0.3677614E-15  0.2591513E-02
   1       -1.108576
   2        4.233508
   3        4.582885
   4        4.584795
   5        5.074029
   6        5.302291
   7       26.961889
   8       28.762390
   9       29.140132
  10       31.232846
  11       35.477593
  12       37.273005
 
  0.1904762E+00  0.9523810E-01  0.3747003E-15  0.2591513E-02
   1       -0.666257
   2        4.156154
   3        4.629221
   4        4.642240
   5        5.055596
   6        5.332353
   7       24.528059
   8       28.077303
   9       28.821216
  10       32.049980
  11       34.100005
  12       37.139859
 
  0.2380952E+00  0.9523810E-01  0.3885781E-15  0.2591513E-02
   1       -0.091235
   2        4.084598
   3        4.622809
   4        4.676447
   5        5.119786
   6        5.388743
   7       21.948274
   8       27.531050
   9       28.490368
  10       31.855258
  11       34.018962
  12       36.939859
 
  0.2857143E+00  0.9523810E-01  0.3747003E-15  0.2591513E-02
   1        0.583862
   2        4.045720
   3        4.562623
   4        4.674777
   5        5.276342
   6        5.477324
   7       18.844339
   8       27.129049
   9       28.165159
  10       30.732195
  11       34.883470
  12       36.909824
 
  0.3333333E+00  0.9523810E-01  0.3191891E-15  0.2591513E-02
   1        1.293746
   2        4.083900
   3        4.483983
   4        4.643714
   5        5.505648
   6        5.583664
   7       16.657272
   8       26.878276
   9       27.826960
  10       29.659901
  11       35.283865
  12       37.371438
 
  0.3809524E+00  0.9523810E-01  0.3885781E-15  0.2591513E-02
   1        1.918670
   2        4.253629
   3        4.420545
   4        4.598339
   5        5.684956
   6        5.821250
   7       15.442462
   8       26.787325
   9       27.406744
  10       28.848678
  11       35.228189
  12       36.372621
 
  0.4285714E+00  0.9523810E-01  0.3608225E-15  0.2591513E-02
   1        2.328900
   2        4.326503
   3        4.552476
   4        4.617884
   5        5.760296
   6        6.289392
   7       13.592527
   8       26.837872
   9       26.865514
  10       28.409898
  11       35.097202
  12       35.558152
 
  0.4761905E+00  0.9523810E-01  0.3608225E-15  0.2591513E-02
   1        2.521993
   2        4.294913
   3        4.516163
   4        4.925592
   5        5.794477
   6        6.943897
   7       12.036922
   8       26.216060
   9       27.120833
  10       28.278532
  11       34.875486
  12       35.008918
 
 -0.4761905E+00  0.9523810E-01  0.4996004E-15  0.2591513E-02
   1        2.582706
   2        4.285390
   3        4.496335
   4        5.078113
   5        5.779957
   6        7.445473
   7       11.193830
   8       25.666661
   9       27.558544
  10       28.353716
  11       34.327866
  12       34.983177
 
 -0.4285714E+00  0.9523810E-01  0.4440892E-15  0.2591513E-02
   1        2.555540
   2        4.302360
   3        4.496611
   4        5.039731
   5        5.715765
   6        7.191007
   7       11.647325
   8       25.244829
   9       28.180047
  10       28.597306
  11       33.914173
  12       35.002924
 
 -0.3809524E+00  0.9523810E-01  0.3885781E-15  0.2591513E-02
   1        2.417988
   2        4.343399
   3        4.517933
   4        4.791177
   5        5.608102
   6        6.582367
   7       13.034104
   8       24.969843
   9       28.981584
  10       28.998372
  11       33.631853
  12       35.026935
 
 -0.3333333E+00  0.9523810E-01  0.3053113E-15  0.2591513E-02
   1        2.089094
   2        4.401610
   3        4.427148
   4        4.557974
   5        5.469121
   6        6.134973
   7       14.823355
   8       24.846370
   9       29.549851
  10       29.954065
  11       33.478461
  12       34.996204
 
 -0.2857143E+00  0.9523810E-01  0.3608225E-15  0.2591513E-02
   1        1.524045
   2        4.170218
   3        4.471170
   4        4.610599
   5        5.315460
   6        5.853046
   7       16.514609
   8       24.871901
   9       30.237177
  10       31.081990
  11       33.454206
  12       34.850710
 
 -0.2380952E+00  0.9523810E-01  0.3608225E-15  0.2591513E-02
   1        0.824003
   2        4.084219
   3        4.535996
   4        4.662124
   5        5.171376
   6        5.647161
   7       17.954781
   8       25.040103
   9       31.024288
  10       32.327899
  11       33.576556
  12       34.570130
 
 -0.1904762E+00  0.9523810E-01  0.3608225E-15  0.2591513E-02
   1        0.125813
   2        4.102190
   3        4.582002
   4        4.682910
   5        5.074686
   6        5.485476
   7       20.905537
   8       25.346150
   9       31.803509
  10       33.402467
  11       34.101513
  12       34.245657
 
 -0.1428571E+00  0.9523810E-01  0.3469447E-15  0.2591513E-02
   1       -0.488398
   2        4.167720
   3        4.594544
   4        4.643322
   5        5.061018
   6        5.367695
   7       23.682050
   8       25.801113
   9       32.223410
  10       33.772651
  11       34.249262
  12       35.408591
 
 -0.9523810E-01  0.9523810E-01  0.3885781E-15  0.1295756E-02
   1       -0.977765
   2        4.246534
   3        4.569766
   4        4.572197
   5        5.104317
   6        5.293905
   7       25.868799
   8       26.678391
   9       31.983358
  10       33.640587
  11       34.902743
  12       35.359459
 
  0.1428571E+00  0.1428571E+00  0.3761130E-15  0.6478782E-03
   1       -0.871939
   2        4.157477
   3        4.650632
   4        4.650634
   5        5.002122
   6        5.334634
   7       27.824841
   8       27.841636
   9       27.841658
  10       29.750883
  11       34.074405
  12       39.044686
 
  0.1904762E+00  0.1428571E+00  0.3747003E-15  0.2591513E-02
   1       -0.486090
   2        4.071883
   3        4.707115
   4        4.722975
   5        4.965442
   6        5.369275
   7       25.577945
   8       27.065375
   9       28.099084
  10       29.806218
  11       32.761380
  12       39.241694
 
  0.2380952E+00  0.1428571E+00  0.3747003E-15  0.2591513E-02
   1        0.034599
   2        3.988104
   3        4.671522
   4        4.777007
   5        5.055522
   6        5.422714
   7       23.115183
   8       26.438615
   9       27.832530
  10       29.894301
  11       32.472769
  12       38.885887
 
  0.2857143E+00  0.1428571E+00  0.3747003E-15  0.2591513E-02
   1        0.662730
   2        3.923368
   3        4.575097
   4        4.794469
   5        5.257209
   6        5.505073
   7       20.259500
   8       25.967754
   9       27.410466
  10       29.114944
  11       33.577665
  12       38.435136
 
  0.3333333E+00  0.1428571E+00  0.3885781E-15  0.2591513E-02
   1        1.345178
   2        3.904698
   3        4.470744
   4        4.776519
   5        5.544002
   6        5.606237
   7       17.342204
   8       25.661095
   9       26.794566
  10       28.373266
  11       35.178546
  12       37.976435
 
  0.3809524E+00  0.1428571E+00  0.3191891E-15  0.2591513E-02
   1        1.982458
   2        3.968585
   3        4.386206
   4        4.737135
   5        5.703428
   6        5.940854
   7       16.159098
   8       25.528205
   9       25.973989
  10       27.961210
  11       36.964067
  12       37.571442
 
  0.4285714E+00  0.1428571E+00  0.3330669E-15  0.2591513E-02
   1        2.441274
   2        4.100701
   3        4.381036
   4        4.690903
   5        5.774711
   6        6.507423
   7       14.443682
   8       25.112033
   9       25.578066
  10       27.786139
  11       37.206156
  12       37.391702
 
  0.4761905E+00  0.1428571E+00  0.3330669E-15  0.2591513E-02
   1        2.677180
   2        4.143158
   3        4.548766
   4        4.649229
   5        5.804645
   6        7.277684
   7       12.717880
   8       24.321056
   9       25.816511
  10       27.769765
  11       36.660939
  12       36.918274
 
 -0.4761905E+00  0.1428571E+00  0.4440892E-15  0.2591513E-02
   1        2.766741
   2        4.143412
   3        4.620004
   4        4.710885
   5        5.784874
   6        8.048297
   7       11.484503
   8       23.642951
   9       26.245143
  10       27.892971
  11       36.059559
  12       36.678619
 
 -0.4285714E+00  0.1428571E+00  0.3885781E-15  0.2591513E-02
   1        2.772594
   2        4.163371
   3        4.608651
   4        4.736015
   5        5.715042
   6        8.072617
   7       11.491467
   8       23.096138
   9       26.863440
  10       28.157843
  11       35.589906
  12       36.460080
 
 -0.3809524E+00  0.1428571E+00  0.3885781E-15  0.2591513E-02
   1        2.694284
   2        4.211075
   3        4.591760
   4        4.617696
   5        5.600723
   6        7.370175
   7       12.734989
   8       22.696812
   9       27.665804
  10       28.571553
  11       35.251629
  12       36.219029
 
 -0.3333333E+00  0.1428571E+00  0.3608225E-15  0.2591513E-02
   1        2.466504
   2        4.281611
   3        4.325257
   4        4.647536
   5        5.453283
   6        6.704081
   7       14.466314
   8       22.465260
   9       28.641707
  10       29.140732
  11       35.043734
  12       35.899086
 
 -0.2857143E+00  0.1428571E+00  0.3885781E-15  0.2591513E-02
   1        2.005953
   2        4.095706
   3        4.369606
   4        4.695332
   5        5.287438
   6        6.246966
   7       16.287920
   8       22.411181
   9       29.778008
  10       29.868779
  11       34.965027
  12       35.440606
 
 -0.2380952E+00  0.1428571E+00  0.3608225E-15  0.2591513E-02
   1        1.359109
   2        4.007309
   3        4.458503
   4        4.753914
   5        5.122210
   6        5.931513
   7       17.506184
   8       22.535344
   9       30.754607
  10       31.059200
  11       34.807305
  12       35.013746
 
 -0.1904762E+00  0.1428571E+00  0.3330669E-15  0.2591513E-02
   1        0.667896
   2        4.021218
   3        4.535196
   4        4.794669
   5        4.995473
   6        5.692181
   7       20.182832
   8       22.839915
   9       31.790913
  10       32.465388
  11       34.014964
  12       35.178171
 
 -0.1428571E+00  0.1428571E+00  0.3330669E-15  0.1295756E-02
   1        0.034532
   2        4.085843
   3        4.584375
   4        4.739270
   5        4.992583
   6        5.505364
   7       22.844548
   8       23.561580
   9       32.946899
  10       33.145531
  11       33.953900
  12       35.132008
 
  0.1904762E+00  0.1904762E+00  0.3761130E-15  0.6478782E-03
   1       -0.160227
   2        3.976694
   3        4.816876
   4        4.816878
   5        4.871152
   6        5.403187
   7       26.200163
   8       26.200151
   9       27.040837
  10       28.323761
  11       31.351833
  12       41.422209
 
  0.2380952E+00  0.1904762E+00  0.3747003E-15  0.2591513E-02
   1        0.297822
   2        3.881921
   3        4.743732
   4        4.898411
   5        4.999449
   6        5.449476
   7       24.230838
   8       25.487682
   9       27.121738
  10       27.911443
  11       30.669485
  12       41.477309
 
  0.2857143E+00  0.1904762E+00  0.3747003E-15  0.2591513E-02
   1        0.863122
   2        3.800056
   3        4.623315
   4        4.942029
   5        5.235773
   6        5.523645
   7       21.674200
   8       24.935623
   9       26.396704
  10       27.768354
  11       31.317115
  12       41.061593
 
  0.3333333E+00  0.1904762E+00  0.3747003E-15  0.2591513E-02
   1        1.489908
   2        3.747516
   3        4.505027
   4        4.941857
   5        5.563985
   6        5.620731
   7       18.542298
   8       24.555575
   9       25.367370
  10       27.527699
  11       32.771114
  12       40.502689
 
  0.3809524E+00  0.1904762E+00  0.3747003E-15  0.2591513E-02
   1        2.097365
   2        3.745998
   3        4.405176
   4        4.911517
   5        5.716827
   6        6.023666
   7       16.494592
   8       24.302055
   9       24.363405
  10       27.357874
  11       34.544495
  12       40.034614
 
  0.4285714E+00  0.1904762E+00  0.3469447E-15  0.2591513E-02
   1        2.571873
   2        3.809101
   3        4.351738
   4        4.867463
   5        5.787410
   6        6.670942
   7       15.424064
   8       23.272500
   9       24.374242
  10       27.279844
  11       36.470269
  12       39.338037
 
  0.4761905E+00  0.1904762E+00  0.3330669E-15  0.2591513E-02
   1        2.845955
   2        3.892114
   3        4.382843
   4        4.822182
   5        5.815744
   6        7.539117
   7       13.597587
   8       22.296525
   9       24.582315
  10       27.299870
  11       38.168093
  12       38.566591
 
 -0.4761905E+00  0.1904762E+00  0.3885781E-15  0.2591513E-02
   1        2.969409
   2        3.937465
   3        4.468974
   4        4.784527
   5        5.793550
   6        8.531826
   7       12.061345
   8       21.410737
   9       24.982852
  10       27.427777
  11       37.921437
  12       38.382103
 
 -0.4285714E+00  0.1904762E+00  0.3885781E-15  0.2591513E-02
   1        3.010261
   2        3.974654
   3        4.502379
   4        4.760792
   5        5.720572
   6        9.003302
   7       11.488553
   8       20.580559
   9       25.575449
  10       27.675642
  11       37.407846
  12       38.084363
 
 -0.3809524E+00  0.1904762E+00  0.3885781E-15  0.2591513E-02
   1        2.984795
   2        4.034280
   3        4.417451
   4        4.754909
   5        5.602730
   6        8.297991
   7       12.542466
   8       19.910131
   9       26.354594
  10       28.055277
  11       37.028294
  12       37.691445
 
 -0.3333333E+00  0.1904762E+00  0.4440892E-15  0.2591513E-02
   1        2.850824
   2        4.119316
   3        4.224696
   4        4.768658
   5        5.451432
   6        7.431016
   7       14.224518
   8       19.497811
   9       27.305245
  10       28.576059
  11       36.784254
  12       37.189942
 
 -0.2857143E+00  0.1904762E+00  0.3885781E-15  0.2591513E-02
   1        2.513399
   2        4.025155
   3        4.232784
   4        4.802123
   5        5.280999
   6        6.768149
   7       16.071114
   8       19.340778
   9       28.411090
  10       29.242419
  11       36.530073
  12       36.677673
 
 -0.2380952E+00  0.1904762E+00  0.3330669E-15  0.2591513E-02
   1        1.954845
   2        3.943639
   3        4.346340
   4        4.853025
   5        5.106034
   6        6.301085
   7       17.139496
   8       19.406902
   9       29.654589
  10       30.048634
  11       35.697420
  12       36.711265
 
 -0.1904762E+00  0.1904762E+00  0.3608225E-15  0.1295756E-02
   1        1.299779
   2        3.957680
   3        4.452345
   4        4.912232
   5        4.946382
   6        5.958166
   7       19.338873
   8       20.068998
   9       30.959799
  10       31.015622
  11       34.769667
  12       36.821588
 
  0.2380952E+00  0.2380952E+00  0.3635121E-15  0.6478782E-03
   1        0.684161
   2        3.776267
   3        4.789028
   4        5.017272
   5        5.017274
   6        5.480476
   7       24.687642
   8       24.682673
   9       26.238037
  10       26.379907
  11       29.549562
  12       43.728678
 
  0.2857143E+00  0.2380952E+00  0.3642919E-15  0.2591513E-02
   1        1.167702
   2        3.681546
   3        4.730947
   4        5.100325
   5        5.211727
   6        5.536905
   7       22.899943
   8       24.028644
   9       25.038879
  10       26.682374
  11       29.478111
  12       43.677134
 
  0.3333333E+00  0.2380952E+00  0.3608225E-15  0.2591513E-02
   1        1.704668
   2        3.609589
   3        4.636670
   4        5.126688
   5        5.554228
   6        5.626264
   7       20.061546
   8       23.545570
   9       23.801670
  10       26.878575
  11       30.479217
  12       43.133382
 
  0.3809524E+00  0.2380952E+00  0.3885781E-15  0.2591513E-02
   1        2.228261
   2        3.573366
   3        4.542039
   4        5.109343
   5        5.723331
   6        6.064489
   7       17.207388
   8       22.552220
   9       23.287054
  10       26.867557
  11       32.080139
  12       42.318239
 
  0.4285714E+00  0.2380952E+00  0.3747003E-15  0.2591513E-02
   1        2.658800
   2        3.583755
   3        4.466751
   4        5.070018
   5        5.796861
   6        6.784760
   7       16.262970
   8       21.297071
   9       23.257290
  10       26.848049
  11       33.967136
  12       41.436925
 
  0.4761905E+00  0.2380952E+00  0.3608225E-15  0.2591513E-02
   1        2.946380
   2        3.635673
   3        4.425787
   4        5.023335
   5        5.827121
   6        7.734437
   7       14.659522
   8       20.023406
   9       23.445057
  10       26.884978
  11       36.025986
  12       40.564019
 
 -0.4761905E+00  0.2380952E+00  0.3885781E-15  0.2591513E-02
   1        3.111905
   2        3.698381
   3        4.413897
   4        4.978688
   5        5.805573
   6        8.869537
   7       12.937218
   8       18.790522
   9       23.811035
  10       27.004313
  11       38.147367
  12       39.870947
 
 -0.4285714E+00  0.2380952E+00  0.3885781E-15  0.2591513E-02
   1        3.203985
   2        3.757409
   3        4.391398
   4        4.942352
   5        5.732672
   6        9.859172
   7       11.748063
   8       17.701789
   9       24.368078
  10       27.222805
  11       39.303111
  12       39.579262
 
 -0.3809524E+00  0.2380952E+00  0.3885781E-15  0.2591513E-02
   1        3.238440
   2        3.832084
   3        4.309055
   4        4.918412
   5        5.616268
   6        9.363601
   7       12.436898
   8       17.129540
   9       25.120857
  10       27.553489
  11       38.865326
  12       39.362853
 
 -0.3333333E+00  0.2380952E+00  0.3885781E-15  0.2591513E-02
   1        3.188477
   2        3.937181
   3        4.153084
   4        4.908087
   5        5.469730
   6        8.322486
   7       14.070112
   8       16.895534
   9       26.045398
  10       28.006110
  11       38.551674
  12       38.721324
 
 -0.2857143E+00  0.2380952E+00  0.4440892E-15  0.2591513E-02
   1        2.973395
   2        3.987126
   3        4.073270
   4        4.908585
   5        5.311679
   6        7.446428
   7       15.857577
   8       16.892532
   9       27.121227
  10       28.584307
  11       37.849471
  12       38.335850
 
 -0.2380952E+00  0.2380952E+00  0.4163336E-15  0.1295756E-02
   1        2.533188
   2        3.923011
   3        4.212206
   4        4.904757
   5        5.172005
   6        6.787825
   7       16.738970
   8       17.166376
   9       28.331037
  10       29.278787
  11       36.794912
  12       38.007501
 
  0.2857143E+00  0.2857143E+00  0.3635121E-15  0.6478782E-03
   1        1.546524
   2        3.574621
   3        4.878390
   4        5.239130
   5        5.239131
   6        5.560441
   7       23.252418
   8       23.236189
   9       23.575042
  10       25.847353
  11       28.602935
  12       45.591279
 
  0.3333333E+00  0.2857143E+00  0.3642919E-15  0.2591513E-02
   1        1.955563
   2        3.488726
   3        4.916172
   4        5.312588
   5        5.511997
   6        5.625182
   7       21.450679
   8       22.201601
   9       22.615952
  10       26.107359
  11       28.763255
  12       45.420707
 
  0.3809524E+00  0.2857143E+00  0.3955170E-15  0.2591513E-02
   1        2.343511
   2        3.433680
   3        4.852687
   4        5.315194
   5        5.721685
   6        6.068144
   7       18.648120
   8       20.700376
   9       22.251366
  10       26.373687
  11       29.875471
  12       44.539712
 
  0.4285714E+00  0.2857143E+00  0.3885781E-15  0.2591513E-02
   1        2.669451
   2        3.417138
   3        4.763266
   4        5.283065
   5        5.801904
   6        6.864409