 vasp.5.2.12 11Nov11 complex                                                    
  
 executed on             LinuxIFC date 2018.05.02  10:08:50
 running on   16 nodes
 distr:  one band on    4 nodes,    4 groups


--------------------------------------------------------------------------------------------------------


 INCAR:
 POTCAR:    PAW_PBE Cu 22Jun2005                  
 POTCAR:    PAW_PBE Cu 22Jun2005                  
   VRHFIN =Cu: d10 p1                                                           
   LEXCH  = PE                                                                  
   EATOM  =  1390.9808 eV,  102.2342 Ry                                         
                                                                                
   TITEL  = PAW_PBE Cu 22Jun2005                                                
   LULTRA =        F    use ultrasoft PP ?                                      
   IUNSCR =        1    unscreen: 0-lin 1-nonlin 2-no                           
   RPACOR =    2.000    partial core radius                                     
   POMASS =   63.546; ZVAL   =   11.000    mass and valenz                      
   RCORE  =    2.300    outmost cutoff radius                                   
   RWIGS  =    2.200; RWIGS  =    1.164    wigner-seitz radius (au A)           
   ENMAX  =  295.446; ENMIN  =  221.585 eV                                      
   ICORE  =        3    local potential                                         
   LCOR   =        T    correct aug charges                                     
   LPAW   =        T    paw PP                                                  
   EAUG   =  586.980                                                            
   DEXC   =    0.000                                                            
   RMAX   =    2.344    core radius for proj-oper                               
   RAUG   =    1.300    factor for augmentation sphere                          
   RDEP   =    2.302    radius for radial grids                                 
   RDEPT  =    1.771    core radius for aug-charge                              
                                                                                
   Atomic configuration                                                         
    9 entries                                                                   
     n  l   j            E        occ.                                          
     1  0  0.50     -8850.2468   2.0000                                         
     2  0  0.50     -1062.3498   2.0000                                         
     2  1  1.50      -916.8226   6.0000                                         
     3  0  0.50      -114.6929   2.0000                                         
     3  1  1.50       -72.1325   6.0000                                         
     3  2  2.50        -5.0394  10.0000                                         
     4  0  0.50        -4.6097   1.0000                                         
     4  1  0.50        -4.0817   0.0000                                         
     4  3  2.50        -1.3606   0.0000                                         
   Description                                                                  
     l       E           TYP  RCUT    TYP  RCUT                                 
     2     -5.0393973     23  2.200                                             
     2     10.8846608     23  2.200                                             
     0     -4.6097109     23  2.200                                             
     0      8.2520465     23  2.200                                             
     1     -2.7211652     23  2.200                                             
     1     21.7055443     23  2.200                                             
     3      2.7211652     23  2.300                                             
  local pseudopotential read in
  partial core-charges read in
  partial kinetic energy density read in
  atomic valenz-charges read in
  non local Contribution for L=           2  read in
    real space projection operators read in
  non local Contribution for L=           2  read in
    real space projection operators read in
  non local Contribution for L=           0  read in
    real space projection operators read in
  non local Contribution for L=           0  read in
    real space projection operators read in
  non local Contribution for L=           1  read in
    real space projection operators read in
  non local Contribution for L=           1  read in
    real space projection operators read in
    PAW grid and wavefunctions read in
 
   number of l-projection  operators is LMAX  =           6
   number of lm-projection operators is LMMAX =          18
 
  PAW_PBE Cu 22Jun2005                  :
 energy of atom  1       EATOM=-1390.9808
 kinetic energy error for atom=    0.0321 (will be added to EATOM!!)
 
 
 POSCAR: Cu                                      
  positions in direct lattice
  velocities in cartesian coordinates
 exchange correlation table for  LEXCH =        8
   RHO(1)=    0.500       N(1)  =     2000
   RHO(2)=  100.500       N(2)  =     4000
 


--------------------------------------------------------------------------------------------------------


 ion  position               nearest neighbor table
   1  0.000  0.000  0.000-
 
  LATTYP: Found a face centered cubic cell.
 ALAT       =     3.6319499446
  
  Lattice vectors:
  
 A1 = (   0.0000000000,   1.8159749723,   1.8159749723)
 A2 = (   1.8159749723,   0.0000000000,   1.8159749723)
 A3 = (   1.8159749723,   1.8159749723,   0.0000000000)
 Subroutine PRICEL returns:
 Original cell was already a primitive cell.
 

Analysis of symmetry for initial positions (statically):

 Routine SETGRP: Setting up the symmetry group for a 
 face centered cubic supercell.


 Subroutine GETGRP returns: Found 48 space group operations
 (whereof 48 operations were pure point group operations)
 out of a pool of 48 trial point group operations.


The static configuration has the point symmetry O_h .

Analysis of symmetry for dynamics (positions and initial velocities):

 Subroutine DYNSYM returns: Found 48 space group operations
 (whereof 48 operations were pure point group operations)
 out of a pool of 48 trial space group operations
 (whereof 48 operations were pure point group operations)
 and found also     1 'primitive' translations


The dynamic configuration has the point symmetry O_h .
 
 
 KPOINTS: Monkhorst-Pack                          

Automatic generation of k-mesh.
 
 Subroutine IBZKPT returns following result:
 ===========================================
 
 Found    286 irreducible k-points:
 
 Following reciprocal coordinates:
            Coordinates               Weight
  0.000000  0.000000  0.000000      1.000000
  0.047619  0.000000  0.000000      8.000000
  0.095238  0.000000  0.000000      8.000000
  0.142857  0.000000  0.000000      8.000000
  0.190476  0.000000  0.000000      8.000000
  0.238095  0.000000  0.000000      8.000000
  0.285714  0.000000  0.000000      8.000000
  0.333333  0.000000  0.000000      8.000000
  0.380952  0.000000  0.000000      8.000000
  0.428571  0.000000  0.000000      8.000000
  0.476190  0.000000  0.000000      8.000000
  0.047619  0.047619  0.000000      6.000000
  0.095238  0.047619  0.000000     24.000000
  0.142857  0.047619  0.000000     24.000000
  0.190476  0.047619  0.000000     24.000000
  0.238095  0.047619  0.000000     24.000000
  0.285714  0.047619  0.000000     24.000000
  0.333333  0.047619  0.000000     24.000000
  0.380952  0.047619  0.000000     24.000000
  0.428571  0.047619  0.000000     24.000000
  0.476190  0.047619  0.000000     24.000000
 -0.476190  0.047619  0.000000     24.000000
 -0.428571  0.047619  0.000000     24.000000
 -0.380952  0.047619  0.000000     24.000000
 -0.333333  0.047619  0.000000     24.000000
 -0.285714  0.047619  0.000000     24.000000
 -0.238095  0.047619  0.000000     24.000000
 -0.190476  0.047619  0.000000     24.000000
 -0.142857  0.047619  0.000000     24.000000
 -0.095238  0.047619  0.000000     24.000000
 -0.047619  0.047619  0.000000     12.000000
  0.095238  0.095238  0.000000      6.000000
  0.142857  0.095238  0.000000     24.000000
  0.190476  0.095238  0.000000     24.000000
  0.238095  0.095238  0.000000     24.000000
  0.285714  0.095238  0.000000     24.000000
  0.333333  0.095238  0.000000     24.000000
  0.380952  0.095238  0.000000     24.000000
  0.428571  0.095238  0.000000     24.000000
  0.476190  0.095238  0.000000     24.000000
 -0.476190  0.095238  0.000000     24.000000
 -0.428571  0.095238  0.000000     24.000000
 -0.380952  0.095238  0.000000     24.000000
 -0.333333  0.095238  0.000000     24.000000
 -0.285714  0.095238  0.000000     24.000000
 -0.238095  0.095238  0.000000     24.000000
 -0.190476  0.095238  0.000000     24.000000
 -0.142857  0.095238  0.000000     24.000000
 -0.095238  0.095238  0.000000     12.000000
  0.142857  0.142857  0.000000      6.000000
  0.190476  0.142857  0.000000     24.000000
  0.238095  0.142857  0.000000     24.000000
  0.285714  0.142857  0.000000     24.000000
  0.333333  0.142857  0.000000     24.000000
  0.380952  0.142857  0.000000     24.000000
  0.428571  0.142857  0.000000     24.000000
  0.476190  0.142857  0.000000     24.000000
 -0.476190  0.142857  0.000000     24.000000
 -0.428571  0.142857  0.000000     24.000000
 -0.380952  0.142857  0.000000     24.000000
 -0.333333  0.142857  0.000000     24.000000
 -0.285714  0.142857  0.000000     24.000000
 -0.238095  0.142857  0.000000     24.000000
 -0.190476  0.142857  0.000000     24.000000
 -0.142857  0.142857  0.000000     12.000000
  0.190476  0.190476  0.000000      6.000000
  0.238095  0.190476  0.000000     24.000000
  0.285714  0.190476  0.000000     24.000000
  0.333333  0.190476  0.000000     24.000000
  0.380952  0.190476  0.000000     24.000000
  0.428571  0.190476  0.000000     24.000000
  0.476190  0.190476  0.000000     24.000000
 -0.476190  0.190476  0.000000     24.000000
 -0.428571  0.190476  0.000000     24.000000
 -0.380952  0.190476  0.000000     24.000000
 -0.333333  0.190476  0.000000     24.000000
 -0.285714  0.190476  0.000000     24.000000
 -0.238095  0.190476  0.000000     24.000000
 -0.190476  0.190476  0.000000     12.000000
  0.238095  0.238095  0.000000      6.000000
  0.285714  0.238095  0.000000     24.000000
  0.333333  0.238095  0.000000     24.000000
  0.380952  0.238095  0.000000     24.000000
  0.428571  0.238095  0.000000     24.000000
  0.476190  0.238095  0.000000     24.000000
 -0.476190  0.238095  0.000000     24.000000
 -0.428571  0.238095  0.000000     24.000000
 -0.380952  0.238095  0.000000     24.000000
 -0.333333  0.238095  0.000000     24.000000
 -0.285714  0.238095  0.000000     24.000000
 -0.238095  0.238095  0.000000     12.000000
  0.285714  0.285714  0.000000      6.000000
  0.333333  0.285714  0.000000     24.000000
  0.380952  0.285714  0.000000     24.000000
  0.428571  0.285714  0.000000     24.000000
  0.476190  0.285714  0.000000     24.000000
 -0.476190  0.285714  0.000000     24.000000
 -0.428571  0.285714  0.000000     24.000000
 -0.380952  0.285714  0.000000     24.000000
 -0.333333  0.285714  0.000000     24.000000
 -0.285714  0.285714  0.000000     12.000000
  0.333333  0.333333  0.000000      6.000000
  0.380952  0.333333  0.000000     24.000000
  0.428571  0.333333  0.000000     24.000000
  0.476190  0.333333  0.000000     24.000000
 -0.476190  0.333333  0.000000     24.000000
 -0.428571  0.333333  0.000000     24.000000
 -0.380952  0.333333  0.000000     24.000000
 -0.333333  0.333333  0.000000     12.000000
  0.380952  0.380952  0.000000      6.000000
  0.428571  0.380952  0.000000     24.000000
  0.476190  0.380952  0.000000     24.000000
 -0.476190  0.380952  0.000000     24.000000
 -0.428571  0.380952  0.000000     24.000000
 -0.380952  0.380952  0.000000     12.000000
  0.428571  0.428571  0.000000      6.000000
  0.476190  0.428571  0.000000     24.000000
 -0.476190  0.428571  0.000000     24.000000
 -0.428571  0.428571  0.000000     12.000000
  0.476190  0.476190  0.000000      6.000000
 -0.476190  0.476190  0.000000     12.000000
  0.142857  0.095238  0.047619     24.000000
  0.190476  0.095238  0.047619     48.000000
  0.238095  0.095238  0.047619     48.000000
  0.285714  0.095238  0.047619     48.000000
  0.333333  0.095238  0.047619     48.000000
  0.380952  0.095238  0.047619     48.000000
  0.428571  0.095238  0.047619     48.000000
  0.476190  0.095238  0.047619     48.000000
 -0.476190  0.095238  0.047619     48.000000
  0.190476  0.142857  0.047619     24.000000
  0.238095  0.142857  0.047619     48.000000
  0.285714  0.142857  0.047619     48.000000
  0.333333  0.142857  0.047619     48.000000
  0.380952  0.142857  0.047619     48.000000
  0.428571  0.142857  0.047619     48.000000
  0.476190  0.142857  0.047619     48.000000
 -0.476190  0.142857  0.047619     48.000000
 -0.428571  0.142857  0.047619     48.000000
 -0.380952  0.142857  0.047619     48.000000
 -0.333333  0.142857  0.047619     48.000000
 -0.285714  0.142857  0.047619     48.000000
 -0.238095  0.142857  0.047619     48.000000
 -0.190476  0.142857  0.047619     48.000000
 -0.142857  0.142857  0.047619     48.000000
 -0.095238  0.142857  0.047619     24.000000
  0.238095  0.190476  0.047619     24.000000
  0.285714  0.190476  0.047619     48.000000
  0.333333  0.190476  0.047619     48.000000
  0.380952  0.190476  0.047619     48.000000
  0.428571  0.190476  0.047619     48.000000
  0.476190  0.190476  0.047619     48.000000
 -0.476190  0.190476  0.047619     48.000000
 -0.428571  0.190476  0.047619     48.000000
 -0.380952  0.190476  0.047619     48.000000
 -0.333333  0.190476  0.047619     48.000000
 -0.285714  0.190476  0.047619     48.000000
 -0.238095  0.190476  0.047619     48.000000
 -0.190476  0.190476  0.047619     48.000000
 -0.142857  0.190476  0.047619     24.000000
  0.285714  0.238095  0.047619     24.000000
  0.333333  0.238095  0.047619     48.000000
  0.380952  0.238095  0.047619     48.000000
  0.428571  0.238095  0.047619     48.000000
  0.476190  0.238095  0.047619     48.000000
 -0.476190  0.238095  0.047619     48.000000
 -0.428571  0.238095  0.047619     48.000000
 -0.380952  0.238095  0.047619     48.000000
 -0.333333  0.238095  0.047619     48.000000
 -0.285714  0.238095  0.047619     48.000000
 -0.238095  0.238095  0.047619     48.000000
 -0.190476  0.238095  0.047619     24.000000
  0.333333  0.285714  0.047619     24.000000
  0.380952  0.285714  0.047619     48.000000
  0.428571  0.285714  0.047619     48.000000
  0.476190  0.285714  0.047619     48.000000
 -0.476190  0.285714  0.047619     48.000000
 -0.428571  0.285714  0.047619     48.000000
 -0.380952  0.285714  0.047619     48.000000
 -0.333333  0.285714  0.047619     48.000000
 -0.285714  0.285714  0.047619     48.000000
 -0.238095  0.285714  0.047619     24.000000
  0.380952  0.333333  0.047619     24.000000
  0.428571  0.333333  0.047619     48.000000
  0.476190  0.333333  0.047619     48.000000
 -0.476190  0.333333  0.047619     48.000000
 -0.428571  0.333333  0.047619     48.000000
 -0.380952  0.333333  0.047619     48.000000
 -0.333333  0.333333  0.047619     48.000000
 -0.285714  0.333333  0.047619     24.000000
  0.428571  0.380952  0.047619     24.000000
  0.476190  0.380952  0.047619     48.000000
 -0.476190  0.380952  0.047619     48.000000
 -0.428571  0.380952  0.047619     48.000000
 -0.380952  0.380952  0.047619     48.000000
 -0.333333  0.380952  0.047619     24.000000
  0.476190  0.428571  0.047619     24.000000
 -0.476190  0.428571  0.047619     48.000000
 -0.428571  0.428571  0.047619     48.000000
 -0.380952  0.428571  0.047619     24.000000
 -0.476190  0.476190  0.047619     24.000000
 -0.428571  0.476190  0.047619     24.000000
  0.285714  0.190476  0.095238     24.000000
  0.333333  0.190476  0.095238     48.000000
  0.380952  0.190476  0.095238     48.000000
  0.428571  0.190476  0.095238     48.000000
  0.476190  0.190476  0.095238     48.000000
 -0.476190  0.190476  0.095238     48.000000
 -0.428571  0.190476  0.095238     48.000000
  0.333333  0.238095  0.095238     24.000000
  0.380952  0.238095  0.095238     48.000000
  0.428571  0.238095  0.095238     48.000000
  0.476190  0.238095  0.095238     48.000000
 -0.476190  0.238095  0.095238     48.000000
 -0.428571  0.238095  0.095238     48.000000
 -0.380952  0.238095  0.095238     48.000000
 -0.333333  0.238095  0.095238     48.000000
 -0.285714  0.238095  0.095238     48.000000
 -0.238095  0.238095  0.095238     48.000000
 -0.190476  0.238095  0.095238     48.000000
 -0.142857  0.238095  0.095238     24.000000
  0.380952  0.285714  0.095238     24.000000
  0.428571  0.285714  0.095238     48.000000
  0.476190  0.285714  0.095238     48.000000
 -0.476190  0.285714  0.095238     48.000000
 -0.428571  0.285714  0.095238     48.000000
 -0.380952  0.285714  0.095238     48.000000
 -0.333333  0.285714  0.095238     48.000000
 -0.285714  0.285714  0.095238     48.000000
 -0.238095  0.285714  0.095238     48.000000
 -0.190476  0.285714  0.095238     24.000000
  0.428571  0.333333  0.095238     24.000000
  0.476190  0.333333  0.095238     48.000000
 -0.476190  0.333333  0.095238     48.000000
 -0.428571  0.333333  0.095238     48.000000
 -0.380952  0.333333  0.095238     48.000000
 -0.333333  0.333333  0.095238     48.000000
 -0.285714  0.333333  0.095238     48.000000
 -0.238095  0.333333  0.095238     24.000000
  0.476190  0.380952  0.095238     24.000000
 -0.476190  0.380952  0.095238     48.000000
 -0.428571  0.380952  0.095238     48.000000
 -0.380952  0.380952  0.095238     48.000000
 -0.333333  0.380952  0.095238     48.000000
 -0.285714  0.380952  0.095238     24.000000
 -0.476190  0.428571  0.095238     24.000000
 -0.428571  0.428571  0.095238     48.000000
 -0.380952  0.428571  0.095238     48.000000
 -0.333333  0.428571  0.095238     24.000000
 -0.428571  0.476190  0.095238     24.000000
 -0.380952  0.476190  0.095238     24.000000
  0.428571  0.285714  0.142857     24.000000
  0.476190  0.285714  0.142857     48.000000
 -0.476190  0.285714  0.142857     48.000000
 -0.428571  0.285714  0.142857     48.000000
 -0.380952  0.285714  0.142857     48.000000
  0.476190  0.333333  0.142857     24.000000
 -0.476190  0.333333  0.142857     48.000000
 -0.428571  0.333333  0.142857     48.000000
 -0.380952  0.333333  0.142857     48.000000
 -0.333333  0.333333  0.142857     48.000000
 -0.285714  0.333333  0.142857     48.000000
 -0.238095  0.333333  0.142857     48.000000
 -0.190476  0.333333  0.142857     24.000000
 -0.476190  0.380952  0.142857     24.000000
 -0.428571  0.380952  0.142857     48.000000
 -0.380952  0.380952  0.142857     48.000000
 -0.333333  0.380952  0.142857     48.000000
 -0.285714  0.380952  0.142857     48.000000
 -0.238095  0.380952  0.142857     24.000000
 -0.428571  0.428571  0.142857     24.000000
 -0.380952  0.428571  0.142857     48.000000
 -0.333333  0.428571  0.142857     48.000000
 -0.285714  0.428571  0.142857     24.000000
 -0.380952  0.476190  0.142857     24.000000
 -0.333333  0.476190  0.142857     24.000000
 -0.428571  0.380952  0.190476     24.000000
 -0.380952  0.380952  0.190476     48.000000
 -0.333333  0.380952  0.190476     48.000000
 -0.380952  0.428571  0.190476     24.000000
 -0.333333  0.428571  0.190476     48.000000
 -0.285714  0.428571  0.190476     48.000000
 -0.238095  0.428571  0.190476     24.000000
 -0.333333  0.476190  0.190476     24.000000
 -0.285714  0.476190  0.190476     24.000000
 -0.285714  0.476190  0.238095     24.000000
 
 Following cartesian coordinates:
            Coordinates               Weight
  0.000000  0.000000  0.000000      1.000000
 -0.013111  0.013111  0.013111      8.000000
 -0.026222  0.026222  0.026222      8.000000
 -0.039333  0.039333  0.039333      8.000000
 -0.052445  0.052445  0.052445      8.000000
 -0.065556  0.065556  0.065556      8.000000
 -0.078667  0.078667  0.078667      8.000000
 -0.091778  0.091778  0.091778      8.000000
 -0.104889  0.104889  0.104889      8.000000
 -0.118000  0.118000  0.118000      8.000000
 -0.131112  0.131112  0.131112      8.000000
  0.000000  0.000000  0.026222      6.000000
 -0.013111  0.013111  0.039333     24.000000
 -0.026222  0.026222  0.052445     24.000000
 -0.039333  0.039333  0.065556     24.000000
 -0.052445  0.052445  0.078667     24.000000
 -0.065556  0.065556  0.091778     24.000000
 -0.078667  0.078667  0.104889     24.000000
 -0.091778  0.091778  0.118000     24.000000
 -0.104889  0.104889  0.131112     24.000000
 -0.118000  0.118000  0.144223     24.000000
  0.144223 -0.144223 -0.118000     24.000000
  0.131112 -0.131112 -0.104889     24.000000
  0.118000 -0.118000 -0.091778     24.000000
  0.104889 -0.104889 -0.078667     24.000000
  0.091778 -0.091778 -0.065556     24.000000
  0.078667 -0.078667 -0.052445     24.000000
  0.065556 -0.065556 -0.039333     24.000000
  0.052445 -0.052445 -0.026222     24.000000
  0.039333 -0.039333 -0.013111     24.000000
  0.026222 -0.026222  0.000000     12.000000
  0.000000  0.000000  0.052445      6.000000
 -0.013111  0.013111  0.065556     24.000000
 -0.026222  0.026222  0.078667     24.000000
 -0.039333  0.039333  0.091778     24.000000
 -0.052445  0.052445  0.104889     24.000000
 -0.065556  0.065556  0.118000     24.000000
 -0.078667  0.078667  0.131112     24.000000
 -0.091778  0.091778  0.144223     24.000000
 -0.104889  0.104889  0.157334     24.000000
  0.157334 -0.157334 -0.104889     24.000000
  0.144223 -0.144223 -0.091778     24.000000
  0.131112 -0.131112 -0.078667     24.000000
  0.118000 -0.118000 -0.065556     24.000000
  0.104889 -0.104889 -0.052445     24.000000
  0.091778 -0.091778 -0.039333     24.000000
  0.078667 -0.078667 -0.026222     24.000000
  0.065556 -0.065556 -0.013111     24.000000
  0.052445 -0.052445  0.000000     12.000000
  0.000000  0.000000  0.078667      6.000000
 -0.013111  0.013111  0.091778     24.000000
 -0.026222  0.026222  0.104889     24.000000
 -0.039333  0.039333  0.118000     24.000000
 -0.052445  0.052445  0.131112     24.000000
 -0.065556  0.065556  0.144223     24.000000
 -0.078667  0.078667  0.157334     24.000000
 -0.091778  0.091778  0.170445     24.000000
  0.170445 -0.170445 -0.091778     24.000000
  0.157334 -0.157334 -0.078667     24.000000
  0.144223 -0.144223 -0.065556     24.000000
  0.131112 -0.131112 -0.052445     24.000000
  0.118000 -0.118000 -0.039333     24.000000
  0.104889 -0.104889 -0.026222     24.000000
  0.091778 -0.091778 -0.013111     24.000000
  0.078667 -0.078667  0.000000     12.000000
  0.000000  0.000000  0.104889      6.000000
 -0.013111  0.013111  0.118000     24.000000
 -0.026222  0.026222  0.131112     24.000000
 -0.039333  0.039333  0.144223     24.000000
 -0.052445  0.052445  0.157334     24.000000
 -0.065556  0.065556  0.170445     24.000000
 -0.078667  0.078667  0.183556     24.000000
  0.183556 -0.183556 -0.078667     24.000000
  0.170445 -0.170445 -0.065556     24.000000
  0.157334 -0.157334 -0.052445     24.000000
  0.144223 -0.144223 -0.039333     24.000000
  0.131112 -0.131112 -0.026222     24.000000
  0.118000 -0.118000 -0.013111     24.000000
  0.104889 -0.104889  0.000000     12.000000
  0.000000  0.000000  0.131112      6.000000
 -0.013111  0.013111  0.144223     24.000000
 -0.026222  0.026222  0.157334     24.000000
 -0.039333  0.039333  0.170445     24.000000
 -0.052445  0.052445  0.183556     24.000000
 -0.065556  0.065556  0.196667     24.000000
  0.196667 -0.196667 -0.065556     24.000000
  0.183556 -0.183556 -0.052445     24.000000
  0.170445 -0.170445 -0.039333     24.000000
  0.157334 -0.157334 -0.026222     24.000000
  0.144223 -0.144223 -0.013111     24.000000
  0.131112 -0.131112  0.000000     12.000000
  0.000000  0.000000  0.157334      6.000000
 -0.013111  0.013111  0.170445     24.000000
 -0.026222  0.026222  0.183556     24.000000
 -0.039333  0.039333  0.196667     24.000000
 -0.052445  0.052445  0.209778     24.000000
  0.209778 -0.209778 -0.052445     24.000000
  0.196667 -0.196667 -0.039333     24.000000
  0.183556 -0.183556 -0.026222     24.000000
  0.170445 -0.170445 -0.013111     24.000000
  0.157334 -0.157334  0.000000     12.000000
  0.000000  0.000000  0.183556      6.000000
 -0.013111  0.013111  0.196667     24.000000
 -0.026222  0.026222  0.209778     24.000000
 -0.039333  0.039333  0.222890     24.000000
  0.222890 -0.222890 -0.039333     24.000000
  0.209778 -0.209778 -0.026222     24.000000
  0.196667 -0.196667 -0.013111     24.000000
  0.183556 -0.183556  0.000000     12.000000
  0.000000  0.000000  0.209778      6.000000
 -0.013111  0.013111  0.222890     24.000000
 -0.026222  0.026222  0.236001     24.000000
  0.236001 -0.236001 -0.026222     24.000000
  0.222890 -0.222890 -0.013111     24.000000
  0.209778 -0.209778  0.000000     12.000000
  0.000000  0.000000  0.236001      6.000000
 -0.013111  0.013111  0.249112     24.000000
  0.249112 -0.249112 -0.013111     24.000000
  0.236001 -0.236001  0.000000     12.000000
  0.000000  0.000000  0.262223      6.000000
  0.262223 -0.262223  0.000000     12.000000
 -0.000000  0.026222  0.052445     24.000000
 -0.013111  0.039333  0.065556     48.000000
 -0.026222  0.052445  0.078667     48.000000
 -0.039333  0.065556  0.091778     48.000000
 -0.052445  0.078667  0.104889     48.000000
 -0.065556  0.091778  0.118000     48.000000
 -0.078667  0.104889  0.131112     48.000000
 -0.091778  0.118000  0.144223     48.000000
  0.170445 -0.144223 -0.118000     48.000000
  0.000000  0.026222  0.078667     24.000000
 -0.013111  0.039333  0.091778     48.000000
 -0.026222  0.052445  0.104889     48.000000
 -0.039333  0.065556  0.118000     48.000000
 -0.052445  0.078667  0.131112     48.000000
 -0.065556  0.091778  0.144223     48.000000
 -0.078667  0.104889  0.157334     48.000000
  0.183556 -0.157334 -0.104889     48.000000
  0.170445 -0.144223 -0.091778     48.000000
  0.157334 -0.131112 -0.078667     48.000000
  0.144223 -0.118000 -0.065556     48.000000
  0.131112 -0.104889 -0.052445     48.000000
  0.118000 -0.091778 -0.039333     48.000000
  0.104889 -0.078667 -0.026222     48.000000
  0.091778 -0.065556 -0.013111     48.000000
  0.078667 -0.052445  0.000000     24.000000
  0.000000  0.026222  0.104889     24.000000
 -0.013111  0.039333  0.118000     48.000000
 -0.026222  0.052445  0.131112     48.000000
 -0.039333  0.065556  0.144223     48.000000
 -0.052445  0.078667  0.157334     48.000000
 -0.065556  0.091778  0.170445     48.000000
  0.196667 -0.170445 -0.091778     48.000000
  0.183556 -0.157334 -0.078667     48.000000
  0.170445 -0.144223 -0.065556     48.000000
  0.157334 -0.131112 -0.052445     48.000000
  0.144223 -0.118000 -0.039333     48.000000
  0.131112 -0.104889 -0.026222     48.000000
  0.118000 -0.091778 -0.013111     48.000000
  0.104889 -0.078667  0.000000     24.000000
  0.000000  0.026222  0.131112     24.000000
 -0.013111  0.039333  0.144223     48.000000
 -0.026222  0.052445  0.157334     48.000000
 -0.039333  0.065556  0.170445     48.000000
 -0.052445  0.078667  0.183556     48.000000
  0.209778 -0.183556 -0.078667     48.000000
  0.196667 -0.170445 -0.065556     48.000000
  0.183556 -0.157334 -0.052445     48.000000
  0.170445 -0.144223 -0.039333     48.000000
  0.157334 -0.131112 -0.026222     48.000000
  0.144223 -0.118000 -0.013111     48.000000
  0.131112 -0.104889  0.000000     24.000000
  0.000000  0.026222  0.157334     24.000000
 -0.013111  0.039333  0.170445     48.000000
 -0.026222  0.052445  0.183556     48.000000
 -0.039333  0.065556  0.196667     48.000000
  0.222890 -0.196667 -0.065556     48.000000
  0.209778 -0.183556 -0.052445     48.000000
  0.196667 -0.170445 -0.039333     48.000000
  0.183556 -0.157334 -0.026222     48.000000
  0.170445 -0.144223 -0.013111     48.000000
  0.157334 -0.131112  0.000000     24.000000
 -0.000000  0.026222  0.183556     24.000000
 -0.013111  0.039333  0.196667     48.000000
 -0.026222  0.052445  0.209778     48.000000
  0.236001 -0.209778 -0.052445     48.000000
  0.222890 -0.196667 -0.039333     48.000000
  0.209778 -0.183556 -0.026222     48.000000
  0.196667 -0.170445 -0.013111     48.000000
  0.183556 -0.157334  0.000000     24.000000
  0.000000  0.026222  0.209778     24.000000
 -0.013111  0.039333  0.222890     48.000000
  0.249112 -0.222890 -0.039333     48.000000
  0.236001 -0.209778 -0.026222     48.000000
  0.222890 -0.196667 -0.013111     48.000000
  0.209778 -0.183556  0.000000     24.000000
  0.000000  0.026222  0.236001     24.000000
  0.262223 -0.236001 -0.026222     48.000000
  0.249112 -0.222890 -0.013111     48.000000
  0.236001 -0.209778  0.000000     24.000000
  0.275334 -0.249112 -0.013111     24.000000
  0.262223 -0.236001  0.000000     24.000000
  0.000000  0.052445  0.104889     24.000000
 -0.013111  0.065556  0.118000     48.000000
 -0.026222  0.078667  0.131112     48.000000
 -0.039333  0.091778  0.144223     48.000000
 -0.052445  0.104889  0.157334     48.000000
  0.209778 -0.157334 -0.104889     48.000000
  0.196667 -0.144223 -0.091778     48.000000
  0.000000  0.052445  0.131112     24.000000
 -0.013111  0.065556  0.144223     48.000000
 -0.026222  0.078667  0.157334     48.000000
 -0.039333  0.091778  0.170445     48.000000
  0.222890 -0.170445 -0.091778     48.000000
  0.209778 -0.157334 -0.078667     48.000000
  0.196667 -0.144223 -0.065556     48.000000
  0.183556 -0.131112 -0.052445     48.000000
  0.170445 -0.118000 -0.039333     48.000000
  0.157334 -0.104889 -0.026222     48.000000
  0.144223 -0.091778 -0.013111     48.000000
  0.131112 -0.078667  0.000000     24.000000
 -0.000000  0.052445  0.157334     24.000000
 -0.013111  0.065556  0.170445     48.000000
 -0.026222  0.078667  0.183556     48.000000
  0.236001 -0.183556 -0.078667     48.000000
  0.222890 -0.170445 -0.065556     48.000000
  0.209778 -0.157334 -0.052445     48.000000
  0.196667 -0.144223 -0.039333     48.000000
  0.183556 -0.131112 -0.026222     48.000000
  0.170445 -0.118000 -0.013111     48.000000
  0.157334 -0.104889  0.000000     24.000000
 -0.000000  0.052445  0.183556     24.000000
 -0.013111  0.065556  0.196667     48.000000
  0.249112 -0.196667 -0.065556     48.000000
  0.236001 -0.183556 -0.052445     48.000000
  0.222890 -0.170445 -0.039333     48.000000
  0.209778 -0.157334 -0.026222     48.000000
  0.196667 -0.144223 -0.013111     48.000000
  0.183556 -0.131112  0.000000     24.000000
  0.000000  0.052445  0.209778     24.000000
  0.262223 -0.209778 -0.052445     48.000000
  0.249112 -0.196667 -0.039333     48.000000
  0.236001 -0.183556 -0.026222     48.000000
  0.222890 -0.170445 -0.013111     48.000000
  0.209778 -0.157334  0.000000     24.000000
  0.275334 -0.222890 -0.039333     24.000000
  0.262223 -0.209778 -0.026222     48.000000
  0.249112 -0.196667 -0.013111     48.000000
  0.236001 -0.183556  0.000000     24.000000
  0.275334 -0.222890 -0.013111     24.000000
  0.262223 -0.209778  0.000000     24.000000
  0.000000  0.078667  0.157334     24.000000
 -0.013111  0.091778  0.170445     48.000000
  0.249112 -0.170445 -0.091778     48.000000
  0.236001 -0.157334 -0.078667     48.000000
  0.222890 -0.144223 -0.065556     48.000000
  0.000000  0.078667  0.183556     24.000000
  0.262223 -0.183556 -0.078667     48.000000
  0.249112 -0.170445 -0.065556     48.000000
  0.236001 -0.157334 -0.052445     48.000000
  0.222890 -0.144223 -0.039333     48.000000
  0.209778 -0.131112 -0.026222     48.000000
  0.196667 -0.118000 -0.013111     48.000000
  0.183556 -0.104889 -0.000000     24.000000
  0.275334 -0.196667 -0.065556     24.000000
  0.262223 -0.183556 -0.052445     48.000000
  0.249112 -0.170445 -0.039333     48.000000
  0.236001 -0.157334 -0.026222     48.000000
  0.222890 -0.144223 -0.013111     48.000000
  0.209778 -0.131112  0.000000     24.000000
  0.275334 -0.196667 -0.039333     24.000000
  0.262223 -0.183556 -0.026222     48.000000
  0.249112 -0.170445 -0.013111     48.000000
  0.236001 -0.157334  0.000000     24.000000
  0.275334 -0.196667 -0.013111     24.000000
  0.262223 -0.183556  0.000000     24.000000
  0.275334 -0.170445 -0.065556     24.000000
  0.262223 -0.157334 -0.052445     48.000000
  0.249112 -0.144223 -0.039333     48.000000
  0.275334 -0.170445 -0.039333     24.000000
  0.262223 -0.157334 -0.026222     48.000000
  0.249112 -0.144223 -0.013111     48.000000
  0.236001 -0.131112  0.000000     24.000000
  0.275334 -0.170445 -0.013111     24.000000
  0.262223 -0.157334  0.000000     24.000000
  0.275334 -0.144223 -0.013111     24.000000
 


--------------------------------------------------------------------------------------------------------




 Dimension of arrays:
   k-points           NKPTS =    286   k-points in BZ     NKDIM =    286   number of bands    NBANDS=     12
   number of dos      NEDOS =    301   number of ions     NIONS =      1
   non local maximal  LDIM  =      6   non local SUM 2l+1 LMDIM =     18
   total plane-waves  NPLWV =   4096
   max r-space proj   IRMAX =      1   max aug-charges    IRDMAX=   6835
   dimension x,y,z NGX =    16 NGY =   16 NGZ =   16
   dimension x,y,z NGXF=    28 NGYF=   28 NGZF=   28
   support grid    NGXF=    28 NGYF=   28 NGZF=   28
   ions per type =               1
 NGX,Y,Z   is equivalent  to a cutoff of  10.36, 10.36, 10.36 a.u.
 NGXF,Y,Z  is equivalent  to a cutoff of  18.13, 18.13, 18.13 a.u.


 I would recommend the setting:
   dimension x,y,z NGX =    16 NGY =   16 NGZ =   16
 SYSTEM =  fcc copper                              
 POSCAR =  Cu                                      

 Startparameter for this run:
   NWRITE =      2    write-flag & timer
   PREC   = high      normal or accurate (medium, high low for compatibility)
   ISTART =      0    job   : 0-new  1-cont  2-samecut
   ICHARG =      2    charge: 1-file 2-atom 10-const
   ISPIN  =      1    spin polarized calculation?
   LNONCOLLINEAR =      F non collinear calculations
   LSORBIT =      F    spin-orbit coupling
   INIWAV =      1    electr: 0-lowe 1-rand  2-diag
   LASPH  =      F    aspherical Exc in radial PAW
   METAGGA=      F    non-selfconsistent MetaGGA calc.

 Electronic Relaxation 1
   ENCUT  =  369.3 eV  27.14 Ry    5.21 a.u.   4.02  4.02  4.02*2*pi/ulx,y,z
   ENINI  =  369.3     initial cutoff
   ENAUG  =  587.0 eV  augmentation charge cutoff
   NELM   =     40;   NELMIN=  4; NELMDL= -5     # of ELM steps 
   EDIFF  = 0.1E-05   stopping-criterion for ELM
   LREAL  =      F    real-space projection
   NLSPLINE    = F    spline interpolate recip. space projectors
   LCOMPAT=      F    compatible to vasp.4.4
   GGA_COMPAT  = T    GGA compatible to vasp.4.4-vasp.4.6
   LMAXPAW     = -100 max onsite density
   LMAXMIX     =    2 max onsite mixed and CHGCAR
   VOSKOWN=      0    Vosko Wilk Nusair interpolation
   ROPT   =    0.00000
 Ionic relaxation
   EDIFFG = -.5E-02   stopping-criterion for IOM
   NSW    =   1000    number of steps for IOM
   NBLOCK =      1;   KBLOCK =   1000    inner block; outer block 
   IBRION =      2    ionic relax: 0-MD 1-quasi-New 2-CG
   NFREE  =      1    steps in history (QN), initial steepest desc. (CG)
   ISIF   =      3    stress and relaxation
   IWAVPR =     11    prediction:  0-non 1-charg 2-wave 3-comb
   ISYM   =      2    0-nonsym 1-usesym 2-fastsym
   LCORR  =      T    Harris-Foulkes like correction to forces

   POTIM  = 0.5000    time-step for ionic-motion
   TEIN   =    0.0    initial temperature
   TEBEG  =    0.0;   TEEND  =   0.0 temperature during run
   SMASS  =  -3.00    Nose mass-parameter (am)
   estimated Nose-frequenzy (Omega)   =  0.10E-29 period in steps =****** mass=  -0.151E-27a.u.
   SCALEE = 1.0000    scale energy and forces
   NPACO  =    256;   APACO  = 16.0  distance and # of slots for P.C.
   PSTRESS=    0.0 pullay stress

  Mass of Ions in am
   POMASS =  63.55
  Ionic Valenz
   ZVAL   =  11.00
  Atomic Wigner-Seitz radii
   RWIGS  =  -1.00
  virtual crystal weights 
   VCA    =   1.00
   NELECT =      11.0000    total number of electrons
   NUPDOWN=      -1.0000    fix difference up-down

 DOS related values:
   EMIN   =  10.00;   EMAX   =-10.00  energy-range for DOS
   EFERMI =   0.00
   ISMEAR =     0;   SIGMA  =   0.10  broadening in eV -4-tet -1-fermi 0-gaus

 Electronic relaxation 2 (details)
   IALGO  =     68    algorithm
   LDIAG  =      T    sub-space diagonalisation (order eigenvalues)
   LSUBROT=      T    optimize rotation matrix (better conditioning)
   TURBO    =      0    0=normal 1=particle mesh
   IRESTART =      0    0=no restart 2=restart with 2 vectors
   NREBOOT  =      0    no. of reboots
   NMIN     =      0    reboot dimension
   EREF     =   0.00    reference energy to select bands
   IMIX   =      4    mixing-type and parameters
     AMIX     =   0.40;   BMIX     =  1.00
     AMIX_MAG =   1.60;   BMIX_MAG =  1.00
     AMIN     =   0.10
     WC   =   100.;   INIMIX=   1;  MIXPRE=   1

 Intra band minimization:
   WEIMIN = 0.0010     energy-eigenvalue tresh-hold
   EBREAK =  0.21E-07  absolut break condition
   DEPER  =   0.30     relativ break condition  

   TIME   =   0.40     timestep for ELM

  volume/ion in A,a.u.               =      11.98        80.83
  Fermi-wavevector in a.u.,A,eV,Ry     =   1.591302  3.007124 34.453233  2.532241
  Thomas-Fermi vector in A             =   2.689863
 
 Write flags
   LWAVE  =      F    write WAVECAR
   LCHARG =      F    write CHGCAR
   LVTOT  =      F    write LOCPOT, total local potential
   LVHAR  =      F    write LOCPOT, Hartree potential only
   LELF   =      F    write electronic localiz. function (ELF)
   LORBIT =      0    0 simple, 1 ext, 2 COOP (PROOUT)


 Dipole corrections
   LMONO  =      F    monopole corrections only (constant potential shift)
   LDIPOL =      F    correct potential (dipole corrections)
   IDIPOL =      0    1-x, 2-y, 3-z, 4-all directions 
   EPSILON=  1.0000000 bulk dielectric constant

 Exchange correlation treatment:
   GGA     =    --    GGA type
   LEXCH   =     8    internal setting for exchange type
   VOSKOWN=      0    Vosko Wilk Nusair interpolation
   LHFCALC =     F    Hartree Fock is set to
   LHFONE  =     F    Hartree Fock one center treatment
   AEXX    =    0.0000 exact exchange contribution

 Linear response parameters
   LEPSILON=     F    determine dielectric tensor
   LRPA    =     F    only Hartree local field effects (RPA)
   LNABLA  =     F    use nabla operator in PAW spheres
   LVEL    =     F    velocity operator in full k-point grid
   LINTERFAST=   F  fast interpolation
   KINTER  =     0    interpolate to denser k-point grid
   CSHIFT  =0.1000    complex shift for real part using Kramers Kronig
   OMEGAMAX=  -1.0    maximum frequency
   RTIME   =    0.100 relaxation time in fs

 Orbital magnetization related:
   ORBITALMAG=     F  switch on orbital magnetization
   LCHIMAG   =     F  perturbation theory with respect to B field
   DQ        =  0.001000  dq finite difference perturbation B field



--------------------------------------------------------------------------------------------------------


 conjugate gradient relaxation of ions
 charge density and potential will be updated during run
 non-spin polarized calculation
 RMM-DIIS sequential band-by-band and
  variant of blocked Davidson during initial phase
 perform sub-space diagonalisation
    before iterative eigenvector-optimisation
 modified Broyden-mixing scheme, WC =      100.0
 initial mixing is a Kerker type mixing with AMIX =  0.4000 and BMIX =      1.0000
 Hartree-type preconditioning will be used
 using additional bands            6
 reciprocal scheme for non local part
 use partial core corrections
 calculate Harris-corrections to forces 
   (improved forces if not selfconsistent)
 use gradient corrections 
 use of overlap-Matrix (Vanderbilt PP)
 Gauss-broadening in eV      SIGMA  =   0.10


--------------------------------------------------------------------------------------------------------


  energy-cutoff  :      369.31
  volume of cell :       11.98
      direct lattice vectors                 reciprocal lattice vectors
     0.000000000  1.815974972  1.815974972    -0.275334191  0.275334191  0.275334191
     1.815974972  0.000000000  1.815974972     0.275334191 -0.275334191  0.275334191
     1.815974972  1.815974972  0.000000000     0.275334191  0.275334191 -0.275334191

  length of vectors
     2.568176435  2.568176435  2.568176435     0.476892808  0.476892808  0.476892808


 
 k-points in units of 2pi/SCALE and weight: Monkhorst-Pack                          
   0.00000000  0.00000000  0.00000000       0.000
  -0.01311115  0.01311115  0.01311115       0.001
  -0.02622230  0.02622230  0.02622230       0.001
  -0.03933346  0.03933346  0.03933346       0.001
  -0.05244461  0.05244461  0.05244461       0.001
  -0.06555576  0.06555576  0.06555576       0.001
  -0.07866691  0.07866691  0.07866691       0.001
  -0.09177806  0.09177806  0.09177806       0.001
  -0.10488922  0.10488922  0.10488922       0.001
  -0.11800037  0.11800037  0.11800037       0.001
  -0.13111152  0.13111152  0.13111152       0.001
   0.00000000  0.00000000  0.02622230       0.001
  -0.01311115  0.01311115  0.03933346       0.003
  -0.02622230  0.02622230  0.05244461       0.003
  -0.03933346  0.03933346  0.06555576       0.003
  -0.05244461  0.05244461  0.07866691       0.003
  -0.06555576  0.06555576  0.09177806       0.003
  -0.07866691  0.07866691  0.10488922       0.003
  -0.09177806  0.09177806  0.11800037       0.003
  -0.10488922  0.10488922  0.13111152       0.003
  -0.11800037  0.11800037  0.14422267       0.003
   0.14422267 -0.14422267 -0.11800037       0.003
   0.13111152 -0.13111152 -0.10488922       0.003
   0.11800037 -0.11800037 -0.09177806       0.003
   0.10488922 -0.10488922 -0.07866691       0.003
   0.09177806 -0.09177806 -0.06555576       0.003
   0.07866691 -0.07866691 -0.05244461       0.003
   0.06555576 -0.06555576 -0.03933346       0.003
   0.05244461 -0.05244461 -0.02622230       0.003
   0.03933346 -0.03933346 -0.01311115       0.003
   0.02622230 -0.02622230  0.00000000       0.001
   0.00000000  0.00000000  0.05244461       0.001
  -0.01311115  0.01311115  0.06555576       0.003
  -0.02622230  0.02622230  0.07866691       0.003
  -0.03933346  0.03933346  0.09177806       0.003
  -0.05244461  0.05244461  0.10488922       0.003
  -0.06555576  0.06555576  0.11800037       0.003
  -0.07866691  0.07866691  0.13111152       0.003
  -0.09177806  0.09177806  0.14422267       0.003
  -0.10488922  0.10488922  0.15733382       0.003
   0.15733382 -0.15733382 -0.10488922       0.003
   0.14422267 -0.14422267 -0.09177806       0.003
   0.13111152 -0.13111152 -0.07866691       0.003
   0.11800037 -0.11800037 -0.06555576       0.003
   0.10488922 -0.10488922 -0.05244461       0.003
   0.09177806 -0.09177806 -0.03933346       0.003
   0.07866691 -0.07866691 -0.02622230       0.003
   0.06555576 -0.06555576 -0.01311115       0.003
   0.05244461 -0.05244461  0.00000000       0.001
   0.00000000  0.00000000  0.07866691       0.001
  -0.01311115  0.01311115  0.09177806       0.003
  -0.02622230  0.02622230  0.10488922       0.003
  -0.03933346  0.03933346  0.11800037       0.003
  -0.05244461  0.05244461  0.13111152       0.003
  -0.06555576  0.06555576  0.14422267       0.003
  -0.07866691  0.07866691  0.15733382       0.003
  -0.09177806  0.09177806  0.17044498       0.003
   0.17044498 -0.17044498 -0.09177806       0.003
   0.15733382 -0.15733382 -0.07866691       0.003
   0.14422267 -0.14422267 -0.06555576       0.003
   0.13111152 -0.13111152 -0.05244461       0.003
   0.11800037 -0.11800037 -0.03933346       0.003
   0.10488922 -0.10488922 -0.02622230       0.003
   0.09177806 -0.09177806 -0.01311115       0.003
   0.07866691 -0.07866691  0.00000000       0.001
   0.00000000  0.00000000  0.10488922       0.001
  -0.01311115  0.01311115  0.11800037       0.003
  -0.02622230  0.02622230  0.13111152       0.003
  -0.03933346  0.03933346  0.14422267       0.003
  -0.05244461  0.05244461  0.15733382       0.003
  -0.06555576  0.06555576  0.17044498       0.003
  -0.07866691  0.07866691  0.18355613       0.003
   0.18355613 -0.18355613 -0.07866691       0.003
   0.17044498 -0.17044498 -0.06555576       0.003
   0.15733382 -0.15733382 -0.05244461       0.003
   0.14422267 -0.14422267 -0.03933346       0.003
   0.13111152 -0.13111152 -0.02622230       0.003
   0.11800037 -0.11800037 -0.01311115       0.003
   0.10488922 -0.10488922  0.00000000       0.001
   0.00000000  0.00000000  0.13111152       0.001
  -0.01311115  0.01311115  0.14422267       0.003
  -0.02622230  0.02622230  0.15733382       0.003
  -0.03933346  0.03933346  0.17044498       0.003
  -0.05244461  0.05244461  0.18355613       0.003
  -0.06555576  0.06555576  0.19666728       0.003
   0.19666728 -0.19666728 -0.06555576       0.003
   0.18355613 -0.18355613 -0.05244461       0.003
   0.17044498 -0.17044498 -0.03933346       0.003
   0.15733382 -0.15733382 -0.02622230       0.003
   0.14422267 -0.14422267 -0.01311115       0.003
   0.13111152 -0.13111152  0.00000000       0.001
   0.00000000  0.00000000  0.15733382       0.001
  -0.01311115  0.01311115  0.17044498       0.003
  -0.02622230  0.02622230  0.18355613       0.003
  -0.03933346  0.03933346  0.19666728       0.003
  -0.05244461  0.05244461  0.20977843       0.003
   0.20977843 -0.20977843 -0.05244461       0.003
   0.19666728 -0.19666728 -0.03933346       0.003
   0.18355613 -0.18355613 -0.02622230       0.003
   0.17044498 -0.17044498 -0.01311115       0.003
   0.15733382 -0.15733382  0.00000000       0.001
   0.00000000  0.00000000  0.18355613       0.001
  -0.01311115  0.01311115  0.19666728       0.003
  -0.02622230  0.02622230  0.20977843       0.003
  -0.03933346  0.03933346  0.22288958       0.003
   0.22288958 -0.22288958 -0.03933346       0.003
   0.20977843 -0.20977843 -0.02622230       0.003
   0.19666728 -0.19666728 -0.01311115       0.003
   0.18355613 -0.18355613  0.00000000       0.001
   0.00000000  0.00000000  0.20977843       0.001
  -0.01311115  0.01311115  0.22288958       0.003
  -0.02622230  0.02622230  0.23600074       0.003
   0.23600074 -0.23600074 -0.02622230       0.003
   0.22288958 -0.22288958 -0.01311115       0.003
   0.20977843 -0.20977843  0.00000000       0.001
   0.00000000  0.00000000  0.23600074       0.001
  -0.01311115  0.01311115  0.24911189       0.003
   0.24911189 -0.24911189 -0.01311115       0.003
   0.23600074 -0.23600074  0.00000000       0.001
   0.00000000  0.00000000  0.26222304       0.001
   0.26222304 -0.26222304  0.00000000       0.001
  -0.00000000  0.02622230  0.05244461       0.003
  -0.01311115  0.03933346  0.06555576       0.005
  -0.02622230  0.05244461  0.07866691       0.005
  -0.03933346  0.06555576  0.09177806       0.005
  -0.05244461  0.07866691  0.10488922       0.005
  -0.06555576  0.09177806  0.11800037       0.005
  -0.07866691  0.10488922  0.13111152       0.005
  -0.09177806  0.11800037  0.14422267       0.005
   0.17044498 -0.14422267 -0.11800037       0.005
   0.00000000  0.02622230  0.07866691       0.003
  -0.01311115  0.03933346  0.09177806       0.005
  -0.02622230  0.05244461  0.10488922       0.005
  -0.03933346  0.06555576  0.11800037       0.005
  -0.05244461  0.07866691  0.13111152       0.005
  -0.06555576  0.09177806  0.14422267       0.005
  -0.07866691  0.10488922  0.15733382       0.005
   0.18355613 -0.15733382 -0.10488922       0.005
   0.17044498 -0.14422267 -0.09177806       0.005
   0.15733382 -0.13111152 -0.07866691       0.005
   0.14422267 -0.11800037 -0.06555576       0.005
   0.13111152 -0.10488922 -0.05244461       0.005
   0.11800037 -0.09177806 -0.03933346       0.005
   0.10488922 -0.07866691 -0.02622230       0.005
   0.09177806 -0.06555576 -0.01311115       0.005
   0.07866691 -0.05244461  0.00000000       0.003
   0.00000000  0.02622230  0.10488922       0.003
  -0.01311115  0.03933346  0.11800037       0.005
  -0.02622230  0.05244461  0.13111152       0.005
  -0.03933346  0.06555576  0.14422267       0.005
  -0.05244461  0.07866691  0.15733382       0.005
  -0.06555576  0.09177806  0.17044498       0.005
   0.19666728 -0.17044498 -0.09177806       0.005
   0.18355613 -0.15733382 -0.07866691       0.005
   0.17044498 -0.14422267 -0.06555576       0.005
   0.15733382 -0.13111152 -0.05244461       0.005
   0.14422267 -0.11800037 -0.03933346       0.005
   0.13111152 -0.10488922 -0.02622230       0.005
   0.11800037 -0.09177806 -0.01311115       0.005
   0.10488922 -0.07866691  0.00000000       0.003
   0.00000000  0.02622230  0.13111152       0.003
  -0.01311115  0.03933346  0.14422267       0.005
  -0.02622230  0.05244461  0.15733382       0.005
  -0.03933346  0.06555576  0.17044498       0.005
  -0.05244461  0.07866691  0.18355613       0.005
   0.20977843 -0.18355613 -0.07866691       0.005
   0.19666728 -0.17044498 -0.06555576       0.005
   0.18355613 -0.15733382 -0.05244461       0.005
   0.17044498 -0.14422267 -0.03933346       0.005
   0.15733382 -0.13111152 -0.02622230       0.005
   0.14422267 -0.11800037 -0.01311115       0.005
   0.13111152 -0.10488922  0.00000000       0.003
   0.00000000  0.02622230  0.15733382       0.003
  -0.01311115  0.03933346  0.17044498       0.005
  -0.02622230  0.05244461  0.18355613       0.005
  -0.03933346  0.06555576  0.19666728       0.005
   0.22288958 -0.19666728 -0.06555576       0.005
   0.20977843 -0.18355613 -0.05244461       0.005
   0.19666728 -0.17044498 -0.03933346       0.005
   0.18355613 -0.15733382 -0.02622230       0.005
   0.17044498 -0.14422267 -0.01311115       0.005
   0.15733382 -0.13111152  0.00000000       0.003
  -0.00000000  0.02622230  0.18355613       0.003
  -0.01311115  0.03933346  0.19666728       0.005
  -0.02622230  0.05244461  0.20977843       0.005
   0.23600074 -0.20977843 -0.05244461       0.005
   0.22288958 -0.19666728 -0.03933346       0.005
   0.20977843 -0.18355613 -0.02622230       0.005
   0.19666728 -0.17044498 -0.01311115       0.005
   0.18355613 -0.15733382  0.00000000       0.003
   0.00000000  0.02622230  0.20977843       0.003
  -0.01311115  0.03933346  0.22288958       0.005
   0.24911189 -0.22288958 -0.03933346       0.005
   0.23600074 -0.20977843 -0.02622230       0.005
   0.22288958 -0.19666728 -0.01311115       0.005
   0.20977843 -0.18355613  0.00000000       0.003
   0.00000000  0.02622230  0.23600074       0.003
   0.26222304 -0.23600074 -0.02622230       0.005
   0.24911189 -0.22288958 -0.01311115       0.005
   0.23600074 -0.20977843  0.00000000       0.003
   0.27533419 -0.24911189 -0.01311115       0.003
   0.26222304 -0.23600074  0.00000000       0.003
   0.00000000  0.05244461  0.10488922       0.003
  -0.01311115  0.06555576  0.11800037       0.005
  -0.02622230  0.07866691  0.13111152       0.005
  -0.03933346  0.09177806  0.14422267       0.005
  -0.05244461  0.10488922  0.15733382       0.005
   0.20977843 -0.15733382 -0.10488922       0.005
   0.19666728 -0.14422267 -0.09177806       0.005
   0.00000000  0.05244461  0.13111152       0.003
  -0.01311115  0.06555576  0.14422267       0.005
  -0.02622230  0.07866691  0.15733382       0.005
  -0.03933346  0.09177806  0.17044498       0.005
   0.22288958 -0.17044498 -0.09177806       0.005
   0.20977843 -0.15733382 -0.07866691       0.005
   0.19666728 -0.14422267 -0.06555576       0.005
   0.18355613 -0.13111152 -0.05244461       0.005
   0.17044498 -0.11800037 -0.03933346       0.005
   0.15733382 -0.10488922 -0.02622230       0.005
   0.14422267 -0.09177806 -0.01311115       0.005
   0.13111152 -0.07866691  0.00000000       0.003
  -0.00000000  0.05244461  0.15733382       0.003
  -0.01311115  0.06555576  0.17044498       0.005
  -0.02622230  0.07866691  0.18355613       0.005
   0.23600074 -0.18355613 -0.07866691       0.005
   0.22288958 -0.17044498 -0.06555576       0.005
   0.20977843 -0.15733382 -0.05244461       0.005
   0.19666728 -0.14422267 -0.03933346       0.005
   0.18355613 -0.13111152 -0.02622230       0.005
   0.17044498 -0.11800037 -0.01311115       0.005
   0.15733382 -0.10488922  0.00000000       0.003
  -0.00000000  0.05244461  0.18355613       0.003
  -0.01311115  0.06555576  0.19666728       0.005
   0.24911189 -0.19666728 -0.06555576       0.005
   0.23600074 -0.18355613 -0.05244461       0.005
   0.22288958 -0.17044498 -0.03933346       0.005
   0.20977843 -0.15733382 -0.02622230       0.005
   0.19666728 -0.14422267 -0.01311115       0.005
   0.18355613 -0.13111152  0.00000000       0.003
   0.00000000  0.05244461  0.20977843       0.003
   0.26222304 -0.20977843 -0.05244461       0.005
   0.24911189 -0.19666728 -0.03933346       0.005
   0.23600074 -0.18355613 -0.02622230       0.005
   0.22288958 -0.17044498 -0.01311115       0.005
   0.20977843 -0.15733382  0.00000000       0.003
   0.27533419 -0.22288958 -0.03933346       0.003
   0.26222304 -0.20977843 -0.02622230       0.005
   0.24911189 -0.19666728 -0.01311115       0.005
   0.23600074 -0.18355613  0.00000000       0.003
   0.27533419 -0.22288958 -0.01311115       0.003
   0.26222304 -0.20977843  0.00000000       0.003
   0.00000000  0.07866691  0.15733382       0.003
  -0.01311115  0.09177806  0.17044498       0.005
   0.24911189 -0.17044498 -0.09177806       0.005
   0.23600074 -0.15733382 -0.07866691       0.005
   0.22288958 -0.14422267 -0.06555576       0.005
   0.00000000  0.07866691  0.18355613       0.003
   0.26222304 -0.18355613 -0.07866691       0.005
   0.24911189 -0.17044498 -0.06555576       0.005
   0.23600074 -0.15733382 -0.05244461       0.005
   0.22288958 -0.14422267 -0.03933346       0.005
   0.20977843 -0.13111152 -0.02622230       0.005
   0.19666728 -0.11800037 -0.01311115       0.005
   0.18355613 -0.10488922 -0.00000000       0.003
   0.27533419 -0.19666728 -0.06555576       0.003
   0.26222304 -0.18355613 -0.05244461       0.005
   0.24911189 -0.17044498 -0.03933346       0.005
   0.23600074 -0.15733382 -0.02622230       0.005
   0.22288958 -0.14422267 -0.01311115       0.005
   0.20977843 -0.13111152  0.00000000       0.003
   0.27533419 -0.19666728 -0.03933346       0.003
   0.26222304 -0.18355613 -0.02622230       0.005
   0.24911189 -0.17044498 -0.01311115       0.005
   0.23600074 -0.15733382  0.00000000       0.003
   0.27533419 -0.19666728 -0.01311115       0.003
   0.26222304 -0.18355613  0.00000000       0.003
   0.27533419 -0.17044498 -0.06555576       0.003
   0.26222304 -0.15733382 -0.05244461       0.005
   0.24911189 -0.14422267 -0.03933346       0.005
   0.27533419 -0.17044498 -0.03933346       0.003
   0.26222304 -0.15733382 -0.02622230       0.005
   0.24911189 -0.14422267 -0.01311115       0.005
   0.23600074 -0.13111152  0.00000000       0.003
   0.27533419 -0.17044498 -0.01311115       0.003
   0.26222304 -0.15733382  0.00000000       0.003
   0.27533419 -0.14422267 -0.01311115       0.003
 
 k-points in reciprocal lattice and weights: Monkhorst-Pack                          
   0.00000000  0.00000000  0.00000000       0.000
   0.04761905  0.00000000  0.00000000       0.001
   0.09523810  0.00000000  0.00000000       0.001
   0.14285714  0.00000000  0.00000000       0.001
   0.19047619  0.00000000  0.00000000       0.001
   0.23809524  0.00000000  0.00000000       0.001
   0.28571429  0.00000000  0.00000000       0.001
   0.33333333  0.00000000  0.00000000       0.001
   0.38095238  0.00000000  0.00000000       0.001
   0.42857143  0.00000000  0.00000000       0.001
   0.47619048  0.00000000  0.00000000       0.001
   0.04761905  0.04761905  0.00000000       0.001
   0.09523810  0.04761905  0.00000000       0.003
   0.14285714  0.04761905  0.00000000       0.003
   0.19047619  0.04761905  0.00000000       0.003
   0.23809524  0.04761905  0.00000000       0.003
   0.28571429  0.04761905  0.00000000       0.003
   0.33333333  0.04761905  0.00000000       0.003
   0.38095238  0.04761905  0.00000000       0.003
   0.42857143  0.04761905  0.00000000       0.003
   0.47619048  0.04761905  0.00000000       0.003
  -0.47619048  0.04761905  0.00000000       0.003
  -0.42857143  0.04761905  0.00000000       0.003
  -0.38095238  0.04761905  0.00000000       0.003
  -0.33333333  0.04761905  0.00000000       0.003
  -0.28571429  0.04761905  0.00000000       0.003
  -0.23809524  0.04761905  0.00000000       0.003
  -0.19047619  0.04761905  0.00000000       0.003
  -0.14285714  0.04761905  0.00000000       0.003
  -0.09523810  0.04761905  0.00000000       0.003
  -0.04761905  0.04761905  0.00000000       0.001
   0.09523810  0.09523810  0.00000000       0.001
   0.14285714  0.09523810  0.00000000       0.003
   0.19047619  0.09523810  0.00000000       0.003
   0.23809524  0.09523810  0.00000000       0.003
   0.28571429  0.09523810  0.00000000       0.003
   0.33333333  0.09523810  0.00000000       0.003
   0.38095238  0.09523810  0.00000000       0.003
   0.42857143  0.09523810  0.00000000       0.003
   0.47619048  0.09523810  0.00000000       0.003
  -0.47619048  0.09523810  0.00000000       0.003
  -0.42857143  0.09523810  0.00000000       0.003
  -0.38095238  0.09523810  0.00000000       0.003
  -0.33333333  0.09523810  0.00000000       0.003
  -0.28571429  0.09523810  0.00000000       0.003
  -0.23809524  0.09523810  0.00000000       0.003
  -0.19047619  0.09523810  0.00000000       0.003
  -0.14285714  0.09523810  0.00000000       0.003
  -0.09523810  0.09523810  0.00000000       0.001
   0.14285714  0.14285714  0.00000000       0.001
   0.19047619  0.14285714  0.00000000       0.003
   0.23809524  0.14285714  0.00000000       0.003
   0.28571429  0.14285714  0.00000000       0.003
   0.33333333  0.14285714  0.00000000       0.003
   0.38095238  0.14285714  0.00000000       0.003
   0.42857143  0.14285714  0.00000000       0.003
   0.47619048  0.14285714  0.00000000       0.003
  -0.47619048  0.14285714  0.00000000       0.003
  -0.42857143  0.14285714  0.00000000       0.003
  -0.38095238  0.14285714  0.00000000       0.003
  -0.33333333  0.14285714  0.00000000       0.003
  -0.28571429  0.14285714  0.00000000       0.003
  -0.23809524  0.14285714  0.00000000       0.003
  -0.19047619  0.14285714  0.00000000       0.003
  -0.14285714  0.14285714  0.00000000       0.001
   0.19047619  0.19047619  0.00000000       0.001
   0.23809524  0.19047619  0.00000000       0.003
   0.28571429  0.19047619  0.00000000       0.003
   0.33333333  0.19047619  0.00000000       0.003
   0.38095238  0.19047619  0.00000000       0.003
   0.42857143  0.19047619  0.00000000       0.003
   0.47619048  0.19047619  0.00000000       0.003
  -0.47619048  0.19047619  0.00000000       0.003
  -0.42857143  0.19047619  0.00000000       0.003
  -0.38095238  0.19047619  0.00000000       0.003
  -0.33333333  0.19047619  0.00000000       0.003
  -0.28571429  0.19047619  0.00000000       0.003
  -0.23809524  0.19047619  0.00000000       0.003
  -0.19047619  0.19047619  0.00000000       0.001
   0.23809524  0.23809524  0.00000000       0.001
   0.28571429  0.23809524  0.00000000       0.003
   0.33333333  0.23809524  0.00000000       0.003
   0.38095238  0.23809524  0.00000000       0.003
   0.42857143  0.23809524  0.00000000       0.003
   0.47619048  0.23809524  0.00000000       0.003
  -0.47619048  0.23809524  0.00000000       0.003
  -0.42857143  0.23809524  0.00000000       0.003
  -0.38095238  0.23809524  0.00000000       0.003
  -0.33333333  0.23809524  0.00000000       0.003
  -0.28571429  0.23809524  0.00000000       0.003
  -0.23809524  0.23809524  0.00000000       0.001
   0.28571429  0.28571429  0.00000000       0.001
   0.33333333  0.28571429  0.00000000       0.003
   0.38095238  0.28571429  0.00000000       0.003
   0.42857143  0.28571429  0.00000000       0.003
   0.47619048  0.28571429  0.00000000       0.003
  -0.47619048  0.28571429  0.00000000       0.003
  -0.42857143  0.28571429  0.00000000       0.003
  -0.38095238  0.28571429  0.00000000       0.003
  -0.33333333  0.28571429  0.00000000       0.003
  -0.28571429  0.28571429  0.00000000       0.001
   0.33333333  0.33333333  0.00000000       0.001
   0.38095238  0.33333333  0.00000000       0.003
   0.42857143  0.33333333  0.00000000       0.003
   0.47619048  0.33333333  0.00000000       0.003
  -0.47619048  0.33333333  0.00000000       0.003
  -0.42857143  0.33333333  0.00000000       0.003
  -0.38095238  0.33333333  0.00000000       0.003
  -0.33333333  0.33333333  0.00000000       0.001
   0.38095238  0.38095238  0.00000000       0.001
   0.42857143  0.38095238  0.00000000       0.003
   0.47619048  0.38095238  0.00000000       0.003
  -0.47619048  0.38095238  0.00000000       0.003
  -0.42857143  0.38095238  0.00000000       0.003
  -0.38095238  0.38095238  0.00000000       0.001
   0.42857143  0.42857143  0.00000000       0.001
   0.47619048  0.42857143  0.00000000       0.003
  -0.47619048  0.42857143  0.00000000       0.003
  -0.42857143  0.42857143  0.00000000       0.001
   0.47619048  0.47619048  0.00000000       0.001
  -0.47619048  0.47619048  0.00000000       0.001
   0.14285714  0.09523810  0.04761905       0.003
   0.19047619  0.09523810  0.04761905       0.005
   0.23809524  0.09523810  0.04761905       0.005
   0.28571429  0.09523810  0.04761905       0.005
   0.33333333  0.09523810  0.04761905       0.005
   0.38095238  0.09523810  0.04761905       0.005
   0.42857143  0.09523810  0.04761905       0.005
   0.47619048  0.09523810  0.04761905       0.005
  -0.47619048  0.09523810  0.04761905       0.005
   0.19047619  0.14285714  0.04761905       0.003
   0.23809524  0.14285714  0.04761905       0.005
   0.28571429  0.14285714  0.04761905       0.005
   0.33333333  0.14285714  0.04761905       0.005
   0.38095238  0.14285714  0.04761905       0.005
   0.42857143  0.14285714  0.04761905       0.005
   0.47619048  0.14285714  0.04761905       0.005
  -0.47619048  0.14285714  0.04761905       0.005
  -0.42857143  0.14285714  0.04761905       0.005
  -0.38095238  0.14285714  0.04761905       0.005
  -0.33333333  0.14285714  0.04761905       0.005
  -0.28571429  0.14285714  0.04761905       0.005
  -0.23809524  0.14285714  0.04761905       0.005
  -0.19047619  0.14285714  0.04761905       0.005
  -0.14285714  0.14285714  0.04761905       0.005
  -0.09523810  0.14285714  0.04761905       0.003
   0.23809524  0.19047619  0.04761905       0.003
   0.28571429  0.19047619  0.04761905       0.005
   0.33333333  0.19047619  0.04761905       0.005
   0.38095238  0.19047619  0.04761905       0.005
   0.42857143  0.19047619  0.04761905       0.005
   0.47619048  0.19047619  0.04761905       0.005
  -0.47619048  0.19047619  0.04761905       0.005
  -0.42857143  0.19047619  0.04761905       0.005
  -0.38095238  0.19047619  0.04761905       0.005
  -0.33333333  0.19047619  0.04761905       0.005
  -0.28571429  0.19047619  0.04761905       0.005
  -0.23809524  0.19047619  0.04761905       0.005
  -0.19047619  0.19047619  0.04761905       0.005
  -0.14285714  0.19047619  0.04761905       0.003
   0.28571429  0.23809524  0.04761905       0.003
   0.33333333  0.23809524  0.04761905       0.005
   0.38095238  0.23809524  0.04761905       0.005
   0.42857143  0.23809524  0.04761905       0.005
   0.47619048  0.23809524  0.04761905       0.005
  -0.47619048  0.23809524  0.04761905       0.005
  -0.42857143  0.23809524  0.04761905       0.005
  -0.38095238  0.23809524  0.04761905       0.005
  -0.33333333  0.23809524  0.04761905       0.005
  -0.28571429  0.23809524  0.04761905       0.005
  -0.23809524  0.23809524  0.04761905       0.005
  -0.19047619  0.23809524  0.04761905       0.003
   0.33333333  0.28571429  0.04761905       0.003
   0.38095238  0.28571429  0.04761905       0.005
   0.42857143  0.28571429  0.04761905       0.005
   0.47619048  0.28571429  0.04761905       0.005
  -0.47619048  0.28571429  0.04761905       0.005
  -0.42857143  0.28571429  0.04761905       0.005
  -0.38095238  0.28571429  0.04761905       0.005
  -0.33333333  0.28571429  0.04761905       0.005
  -0.28571429  0.28571429  0.04761905       0.005
  -0.23809524  0.28571429  0.04761905       0.003
   0.38095238  0.33333333  0.04761905       0.003
   0.42857143  0.33333333  0.04761905       0.005
   0.47619048  0.33333333  0.04761905       0.005
  -0.47619048  0.33333333  0.04761905       0.005
  -0.42857143  0.33333333  0.04761905       0.005
  -0.38095238  0.33333333  0.04761905       0.005
  -0.33333333  0.33333333  0.04761905       0.005
  -0.28571429  0.33333333  0.04761905       0.003
   0.42857143  0.38095238  0.04761905       0.003
   0.47619048  0.38095238  0.04761905       0.005
  -0.47619048  0.38095238  0.04761905       0.005
  -0.42857143  0.38095238  0.04761905       0.005
  -0.38095238  0.38095238  0.04761905       0.005
  -0.33333333  0.38095238  0.04761905       0.003
   0.47619048  0.42857143  0.04761905       0.003
  -0.47619048  0.42857143  0.04761905       0.005
  -0.42857143  0.42857143  0.04761905       0.005
  -0.38095238  0.42857143  0.04761905       0.003
  -0.47619048  0.47619048  0.04761905       0.003
  -0.42857143  0.47619048  0.04761905       0.003
   0.28571429  0.19047619  0.09523810       0.003
   0.33333333  0.19047619  0.09523810       0.005
   0.38095238  0.19047619  0.09523810       0.005
   0.42857143  0.19047619  0.09523810       0.005
   0.47619048  0.19047619  0.09523810       0.005
  -0.47619048  0.19047619  0.09523810       0.005
  -0.42857143  0.19047619  0.09523810       0.005
   0.33333333  0.23809524  0.09523810       0.003
   0.38095238  0.23809524  0.09523810       0.005
   0.42857143  0.23809524  0.09523810       0.005
   0.47619048  0.23809524  0.09523810       0.005
  -0.47619048  0.23809524  0.09523810       0.005
  -0.42857143  0.23809524  0.09523810       0.005
  -0.38095238  0.23809524  0.09523810       0.005
  -0.33333333  0.23809524  0.09523810       0.005
  -0.28571429  0.23809524  0.09523810       0.005
  -0.23809524  0.23809524  0.09523810       0.005
  -0.19047619  0.23809524  0.09523810       0.005
  -0.14285714  0.23809524  0.09523810       0.003
   0.38095238  0.28571429  0.09523810       0.003
   0.42857143  0.28571429  0.09523810       0.005
   0.47619048  0.28571429  0.09523810       0.005
  -0.47619048  0.28571429  0.09523810       0.005
  -0.42857143  0.28571429  0.09523810       0.005
  -0.38095238  0.28571429  0.09523810       0.005
  -0.33333333  0.28571429  0.09523810       0.005
  -0.28571429  0.28571429  0.09523810       0.005
  -0.23809524  0.28571429  0.09523810       0.005
  -0.19047619  0.28571429  0.09523810       0.003
   0.42857143  0.33333333  0.09523810       0.003
   0.47619048  0.33333333  0.09523810       0.005
  -0.47619048  0.33333333  0.09523810       0.005
  -0.42857143  0.33333333  0.09523810       0.005
  -0.38095238  0.33333333  0.09523810       0.005
  -0.33333333  0.33333333  0.09523810       0.005
  -0.28571429  0.33333333  0.09523810       0.005
  -0.23809524  0.33333333  0.09523810       0.003
   0.47619048  0.38095238  0.09523810       0.003
  -0.47619048  0.38095238  0.09523810       0.005
  -0.42857143  0.38095238  0.09523810       0.005
  -0.38095238  0.38095238  0.09523810       0.005
  -0.33333333  0.38095238  0.09523810       0.005
  -0.28571429  0.38095238  0.09523810       0.003
  -0.47619048  0.42857143  0.09523810       0.003
  -0.42857143  0.42857143  0.09523810       0.005
  -0.38095238  0.42857143  0.09523810       0.005
  -0.33333333  0.42857143  0.09523810       0.003
  -0.42857143  0.47619048  0.09523810       0.003
  -0.38095238  0.47619048  0.09523810       0.003
   0.42857143  0.28571429  0.14285714       0.003
   0.47619048  0.28571429  0.14285714       0.005
  -0.47619048  0.28571429  0.14285714       0.005
  -0.42857143  0.28571429  0.14285714       0.005
  -0.38095238  0.28571429  0.14285714       0.005
   0.47619048  0.33333333  0.14285714       0.003
  -0.47619048  0.33333333  0.14285714       0.005
  -0.42857143  0.33333333  0.14285714       0.005
  -0.38095238  0.33333333  0.14285714       0.005
  -0.33333333  0.33333333  0.14285714       0.005
  -0.28571429  0.33333333  0.14285714       0.005
  -0.23809524  0.33333333  0.14285714       0.005
  -0.19047619  0.33333333  0.14285714       0.003
  -0.47619048  0.38095238  0.14285714       0.003
  -0.42857143  0.38095238  0.14285714       0.005
  -0.38095238  0.38095238  0.14285714       0.005
  -0.33333333  0.38095238  0.14285714       0.005
  -0.28571429  0.38095238  0.14285714       0.005
  -0.23809524  0.38095238  0.14285714       0.003
  -0.42857143  0.42857143  0.14285714       0.003
  -0.38095238  0.42857143  0.14285714       0.005
  -0.33333333  0.42857143  0.14285714       0.005
  -0.28571429  0.42857143  0.14285714       0.003
  -0.38095238  0.47619048  0.14285714       0.003
  -0.33333333  0.47619048  0.14285714       0.003
  -0.42857143  0.38095238  0.19047619       0.003
  -0.38095238  0.38095238  0.19047619       0.005
  -0.33333333  0.38095238  0.19047619       0.005
  -0.38095238  0.42857143  0.19047619       0.003
  -0.33333333  0.42857143  0.19047619       0.005
  -0.28571429  0.42857143  0.19047619       0.005
  -0.23809524  0.42857143  0.19047619       0.003
  -0.33333333  0.47619048  0.19047619       0.003
  -0.28571429  0.47619048  0.19047619       0.003
  -0.28571429  0.47619048  0.23809524       0.003
 
 position of ions in fractional coordinates (direct lattice) 
   0.00000000  0.00000000  0.00000000
 
 position of ions in cartesian coordinates  (Angst):
   0.00000000  0.00000000  0.00000000
 


--------------------------------------------------------------------------------------------------------


 k-point  1 :  0.00000.00000.0000  plane waves:     181
 k-point  2 :  0.04760.00000.0000  plane waves:     178
 k-point  3 :  0.09520.00000.0000  plane waves:     178
 k-point  4 :  0.14290.00000.0000  plane waves:     178
 k-point  5 :  0.19050.00000.0000  plane waves:     187
 k-point  6 :  0.23810.00000.0000  plane waves:     193
 k-point  7 :  0.28570.00000.0000  plane waves:     193
 k-point  8 :  0.33330.00000.0000  plane waves:     198
 k-point  9 :  0.38100.00000.0000  plane waves:     189
 k-point 10 :  0.42860.00000.0000  plane waves:     189
 k-point 11 :  0.47620.00000.0000  plane waves:     183
 k-point 12 :  0.04760.04760.0000  plane waves:     177
 k-point 13 :  0.09520.04760.0000  plane waves:     176
 k-point 14 :  0.14290.04760.0000  plane waves:     178
 k-point 15 :  0.19050.04760.0000  plane waves:     184
 k-point 16 :  0.23810.04760.0000  plane waves:     189
 k-point 17 :  0.28570.04760.0000  plane waves:     192
 k-point 18 :  0.33330.04760.0000  plane waves:     193
 k-point 19 :  0.38100.04760.0000  plane waves:     190
 k-point 20 :  0.42860.04760.0000  plane waves:     193
 k-point 21 :  0.47620.04760.0000  plane waves:     191
 k-point 22 :  -.47620.04760.0000  plane waves:     189
 k-point 23 :  -.42860.04760.0000  plane waves:     191
 k-point 24 :  -.38100.04760.0000  plane waves:     192
 k-point 25 :  -.33330.04760.0000  plane waves:     191
 k-point 26 :  -.28570.04760.0000  plane waves:     193
 k-point 27 :  -.23810.04760.0000  plane waves:     191
 k-point 28 :  -.19050.04760.0000  plane waves:     189
 k-point 29 :  -.14290.04760.0000  plane waves:     182
 k-point 30 :  -.09520.04760.0000  plane waves:     176
 k-point 31 :  -.04760.04760.0000  plane waves:     176
 k-point 32 :  0.09520.09520.0000  plane waves:     177
 k-point 33 :  0.14290.09520.0000  plane waves:     178
 k-point 34 :  0.19050.09520.0000  plane waves:     182
 k-point 35 :  0.23810.09520.0000  plane waves:     189
 k-point 36 :  0.28570.09520.0000  plane waves:     192
 k-point 37 :  0.33330.09520.0000  plane waves:     194
 k-point 38 :  0.38100.09520.0000  plane waves:     192
 k-point 39 :  0.42860.09520.0000  plane waves:     188
 k-point 40 :  0.47620.09520.0000  plane waves:     192
 k-point 41 :  -.47620.09520.0000  plane waves:     190
 k-point 42 :  -.42860.09520.0000  plane waves:     190
 k-point 43 :  -.38100.09520.0000  plane waves:     191
 k-point 44 :  -.33330.09520.0000  plane waves:     191
 k-point 45 :  -.28570.09520.0000  plane waves:     195
 k-point 46 :  -.23810.09520.0000  plane waves:     194
 k-point 47 :  -.19050.09520.0000  plane waves:     192
 k-point 48 :  -.14290.09520.0000  plane waves:     183
 k-point 49 :  -.09520.09520.0000  plane waves:     180
 k-point 50 :  0.14290.14290.0000  plane waves:     185
 k-point 51 :  0.19050.14290.0000  plane waves:     185
 k-point 52 :  0.23810.14290.0000  plane waves:     191
 k-point 53 :  0.28570.14290.0000  plane waves:     196
 k-point 54 :  0.33330.14290.0000  plane waves:     194
 k-point 55 :  0.38100.14290.0000  plane waves:     192
 k-point 56 :  0.42860.14290.0000  plane waves:     192
 k-point 57 :  0.47620.14290.0000  plane waves:     191
 k-point 58 :  -.47620.14290.0000  plane waves:     192
 k-point 59 :  -.42860.14290.0000  plane waves:     189
 k-point 60 :  -.38100.14290.0000  plane waves:     192
 k-point 61 :  -.33330.14290.0000  plane waves:     191
 k-point 62 :  -.28570.14290.0000  plane waves:     195
 k-point 63 :  -.23810.14290.0000  plane waves:     193
 k-point 64 :  -.19050.14290.0000  plane waves:     194
 k-point 65 :  -.14290.14290.0000  plane waves:     186
 k-point 66 :  0.19050.19050.0000  plane waves:     186
 k-point 67 :  0.23810.19050.0000  plane waves:     191
 k-point 68 :  0.28570.19050.0000  plane waves:     193
 k-point 69 :  0.33330.19050.0000  plane waves:     193
 k-point 70 :  0.38100.19050.0000  plane waves:     190
 k-point 71 :  0.42860.19050.0000  plane waves:     191
 k-point 72 :  0.47620.19050.0000  plane waves:     193
 k-point 73 :  -.47620.19050.0000  plane waves:     192
 k-point 74 :  -.42860.19050.0000  plane waves:     189
 k-point 75 :  -.38100.19050.0000  plane waves:     192
 k-point 76 :  -.33330.19050.0000  plane waves:     194
 k-point 77 :  -.28570.19050.0000  plane waves:     190
 k-point 78 :  -.23810.19050.0000  plane waves:     193
 k-point 79 :  -.19050.19050.0000  plane waves:     200
 k-point 80 :  0.23810.23810.0000  plane waves:     194
 k-point 81 :  0.28570.23810.0000  plane waves:     192
 k-point 82 :  0.33330.23810.0000  plane waves:     191
 k-point 83 :  0.38100.23810.0000  plane waves:     191
 k-point 84 :  0.42860.23810.0000  plane waves:     193
 k-point 85 :  0.47620.23810.0000  plane waves:     193
 k-point 86 :  -.47620.23810.0000  plane waves:     190
 k-point 87 :  -.42860.23810.0000  plane waves:     191
 k-point 88 :  -.38100.23810.0000  plane waves:     190
 k-point 89 :  -.33330.23810.0000  plane waves:     192
 k-point 90 :  -.28570.23810.0000  plane waves:     194
 k-point 91 :  -.23810.23810.0000  plane waves:     192
 k-point 92 :  0.28570.28570.0000  plane waves:     198
 k-point 93 :  0.33330.28570.0000  plane waves:     197
 k-point 94 :  0.38100.28570.0000  plane waves:     195
 k-point 95 :  0.42860.28570.0000  plane waves:     193
 k-point 96 :  0.47620.28570.0000  plane waves:     195
 k-point 97 :  -.47620.28570.0000  plane waves:     192
 k-point 98 :  -.42860.28570.0000  plane waves:     192
 k-point 99 :  -.38100.28570.0000  plane waves:     188
 k-point ** :  -.33330.28570.0000  plane waves:     190
 k-point ** :  -.28570.28570.0000  plane waves:     194
 k-point ** :  0.33330.33330.0000  plane waves:     194
 k-point ** :  0.38100.33330.0000  plane waves:     199
 k-point ** :  0.42860.33330.0000  plane waves:     199
 k-point ** :  0.47620.33330.0000  plane waves:     197
 k-point ** :  -.47620.33330.0000  plane waves:     196
 k-point ** :  -.42860.33330.0000  plane waves:     192
 k-point ** :  -.38100.33330.0000  plane waves:     190
 k-point ** :  -.33330.33330.0000  plane waves:     186
 k-point ** :  0.38100.38100.0000  plane waves:     198
 k-point ** :  0.42860.38100.0000  plane waves:     196
 k-point ** :  0.47620.38100.0000  plane waves:     197
 k-point ** :  -.47620.38100.0000  plane waves:     198
 k-point ** :  -.42860.38100.0000  plane waves:     196
 k-point ** :  -.38100.38100.0000  plane waves:     194
 k-point ** :  0.42860.42860.0000  plane waves:     194
 k-point ** :  0.47620.42860.0000  plane waves:     194
 k-point ** :  -.47620.42860.0000  plane waves:     193
 k-point ** :  -.42860.42860.0000  plane waves:     198
 k-point ** :  0.47620.47620.0000  plane waves:     190
 k-point ** :  -.47620.47620.0000  plane waves:     192
 k-point ** :  0.14290.09520.0476  plane waves:     175
 k-point ** :  0.19050.09520.0476  plane waves:     180
 k-point ** :  0.23810.09520.0476  plane waves:     185
 k-point ** :  0.28570.09520.0476  plane waves:     191
 k-point ** :  0.33330.09520.0476  plane waves:     191
 k-point ** :  0.38100.09520.0476  plane waves:     193
 k-point ** :  0.42860.09520.0476  plane waves:     191
 k-point ** :  0.47620.09520.0476  plane waves:     191
 k-point ** :  -.47620.09520.0476  plane waves:     193
 k-point ** :  0.19050.14290.0476  plane waves:     179
 k-point ** :  0.23810.14290.0476  plane waves:     186
 k-point ** :  0.28570.14290.0476  plane waves:     193
 k-point ** :  0.33330.14290.0476  plane waves:     193
 k-point ** :  0.38100.14290.0476  plane waves:     193
 k-point ** :  0.42860.14290.0476  plane waves:     192
 k-point ** :  0.47620.14290.0476  plane waves:     194
 k-point ** :  -.47620.14290.0476  plane waves:     192
 k-point ** :  -.42860.14290.0476  plane waves:     191
 k-point ** :  -.38100.14290.0476  plane waves:     191
 k-point ** :  -.33330.14290.0476  plane waves:     193
 k-point ** :  -.28570.14290.0476  plane waves:     191
 k-point ** :  -.23810.14290.0476  plane waves:     192
 k-point ** :  -.19050.14290.0476  plane waves:     191
 k-point ** :  -.14290.14290.0476  plane waves:     188
 k-point ** :  -.09520.14290.0476  plane waves:     183
 k-point ** :  0.23810.19050.0476  plane waves:     188
 k-point ** :  0.28570.19050.0476  plane waves:     190
 k-point ** :  0.33330.19050.0476  plane waves:     193
 k-point ** :  0.38100.19050.0476  plane waves:     192
 k-point ** :  0.42860.19050.0476  plane waves:     192
 k-point ** :  0.47620.19050.0476  plane waves:     193
 k-point ** :  -.47620.19050.0476  plane waves:     194
 k-point ** :  -.42860.19050.0476  plane waves:     192
 k-point ** :  -.38100.19050.0476  plane waves:     195
 k-point ** :  -.33330.19050.0476  plane waves:     193
 k-point ** :  -.28570.19050.0476  plane waves:     192
 k-point ** :  -.23810.19050.0476  plane waves:     194
 k-point ** :  -.19050.19050.0476  plane waves:     195
 k-point ** :  -.14290.19050.0476  plane waves:     192
 k-point ** :  0.28570.23810.0476  plane waves:     192
 k-point ** :  0.33330.23810.0476  plane waves:     192
 k-point ** :  0.38100.23810.0476  plane waves:     191
 k-point ** :  0.42860.23810.0476  plane waves:     192
 k-point ** :  0.47620.23810.0476  plane waves:     193
 k-point ** :  -.47620.23810.0476  plane waves:     192
 k-point ** :  -.42860.23810.0476  plane waves:     193
 k-point ** :  -.38100.23810.0476  plane waves:     192
 k-point ** :  -.33330.23810.0476  plane waves:     194
 k-point ** :  -.28570.23810.0476  plane waves:     192
 k-point ** :  -.23810.23810.0476  plane waves:     192
 k-point ** :  -.19050.23810.0476  plane waves:     193
 k-point ** :  0.33330.28570.0476  plane waves:     192
 k-point ** :  0.38100.28570.0476  plane waves:     190
 k-point ** :  0.42860.28570.0476  plane waves:     195
 k-point ** :  0.47620.28570.0476  plane waves:     194
 k-point ** :  -.47620.28570.0476  plane waves:     192
 k-point ** :  -.42860.28570.0476  plane waves:     193
 k-point ** :  -.38100.28570.0476  plane waves:     193
 k-point ** :  -.33330.28570.0476  plane waves:     193
 k-point ** :  -.28570.28570.0476  plane waves:     193
 k-point ** :  -.23810.28570.0476  plane waves:     194
 k-point ** :  0.38100.33330.0476  plane waves:     195
 k-point ** :  0.42860.33330.0476  plane waves:     196
 k-point ** :  0.47620.33330.0476  plane waves:     198
[...]
      2       3.4702      2.00000
      3       4.4622      2.00000
      4       5.4526      2.00000
      5       5.6651      2.00000
      6       8.0489      0.00000
      7      16.7242      0.00000
      8      17.6368      0.00000
      9      17.9148      0.00000
     10      30.1813      0.00000
     11      32.3576      0.00000
     12      39.7188      0.00000

 k-point 266 :      -0.4286    0.3810    0.1429
  band No.  band energies     occupation 
      1       3.1691      2.00000
      2       3.5170      2.00000
      3       4.3734      2.00000
      4       5.3681      2.00000
      5       5.7582      2.00000
      6       9.1370      0.00000
      7      15.9301      0.00000
      8      17.0073      0.00000
      9      17.3350      0.00000
     10      30.8198      0.00000
     11      33.7633      0.00000
     12      38.9724      0.00000

 k-point 267 :      -0.3810    0.3810    0.1429
  band No.  band energies     occupation 
      1       3.2972      2.00000
      2       3.5788      2.00000
      3       4.2814      2.00000
      4       5.2704      2.00000
      5       5.8083      2.00000
      6      10.4042      0.00000
      7      14.2440      0.00000
      8      16.6678      0.00000
      9      17.2665      0.00000
     10      31.1581      0.00000
     11      35.5886      0.00000
     12      38.4145      0.00000

 k-point 268 :      -0.3333    0.3810    0.1429
  band No.  band energies     occupation 
      1       3.4129      2.00000
      2       3.6307      2.00000
      3       4.1772      2.00000
      4       5.1968      2.00000
      5       5.8037      2.00000
      6      11.7306      0.00000
      7      12.7147      0.00000
      8      16.4041      0.00000
      9      17.5775      0.00000
     10      31.5013      0.00000
     11      36.7192      0.00000
     12      38.6944      0.00000

 k-point 269 :      -0.2857    0.3810    0.1429
  band No.  band energies     occupation 
      1       3.5003      2.00000
      2       3.6896      2.00000
      3       4.0402      2.00000
      4       5.1670      2.00000
      5       5.7510      2.00000
      6      11.0392      0.00000
      7      13.4464      0.00000
      8      16.2000      0.00000
      9      18.3281      0.00000
     10      31.9238      0.00000
     11      36.2934      0.00000
     12      39.6320      0.00000

 k-point 270 :      -0.2381    0.3810    0.1429
  band No.  band energies     occupation 
      1       3.5015      2.00000
      2       3.7929      2.00000
      3       3.8864      2.00000
      4       5.1713      2.00000
      5       5.6665      2.00000
      6       9.7545      0.00000
      7      14.7562      0.00000
      8      16.2936      0.00000
      9      19.6148      0.00000
     10      32.4076      0.00000
     11      35.2958      0.00000
     12      38.9521      0.00000

 k-point 271 :      -0.4286    0.4286    0.1429
  band No.  band energies     occupation 
      1       3.0335      2.00000
      2       3.3881      2.00000
      3       4.6845      2.00000
      4       5.4801      2.00000
      5       5.8248      2.00000
      6       9.3856      0.00000
      7      16.4814      0.00000
      8      16.7557      0.00000
      9      16.9103      0.00000
     10      29.8564      0.00000
     11      32.1855      0.00000
     12      40.9554      0.00000

 k-point 272 :      -0.3810    0.4286    0.1429
  band No.  band energies     occupation 
      1       3.1464      2.00000
      2       3.4616      2.00000
      3       4.5465      2.00000
      4       5.3817      2.00000
      5       5.8709      2.00000
      6      10.5814      0.00000
      7      15.5736      0.00000
      8      16.0293      0.00000
      9      16.7710      0.00000
     10      30.5967      0.00000
     11      33.7199      0.00000
     12      40.0343      0.00000

 k-point 273 :      -0.3333    0.4286    0.1429
  band No.  band energies     occupation 
      1       3.2635      2.00000
      2       3.5562      2.00000
      3       4.3785      2.00000
      4       5.2859      2.00000
      5       5.8687      2.00000
      6      11.8426      0.00000
      7      13.9581      0.00000
      8      15.5963      0.00000
      9      16.8787      0.00000
     10      31.0473      0.00000
     11      35.7828      0.00000
     12      39.0270      0.00000

 k-point 274 :      -0.2857    0.4286    0.1429
  band No.  band energies     occupation 
      1       3.3858      2.00000
      2       3.6491      2.00000
      3       4.1909      2.00000
      4       5.2153      2.00000
      5       5.8222      2.00000
      6      12.4246      0.00000
      7      12.9405      0.00000
      8      15.5791      0.00000
      9      17.3400      0.00000
     10      31.4800      0.00000
     11      37.7781      0.00000
     12      37.9859      0.00000

 k-point 275 :      -0.3810    0.4762    0.1429
  band No.  band energies     occupation 
      1       3.0153      2.00000
      2       3.3452      2.00000
      3       4.8307      2.00000
      4       5.4711      2.00000
      5       5.9133      2.00000
      6      10.6319      0.00000
      7      15.1067      0.00000
      8      16.7562      0.00000
      9      16.4699      0.00000
     10      29.6947      0.00000
     11      32.1023      0.00000
     12      41.9595      0.00000

 k-point 276 :      -0.3333    0.4762    0.1429
  band No.  band energies     occupation 
      1       3.1294      2.00000
      2       3.4430      2.00000
      3       4.6169      2.00000
      4       5.3765      2.00000
      5       5.9123      2.00000
      6      11.4542      0.00000
      7      14.9554      0.00000
      8      15.5087      0.00000
      9      16.5232      0.00000
     10      30.5219      0.00000
     11      33.7026      0.00000
     12      40.5990      0.00000

 k-point 277 :      -0.4286    0.3810    0.1905
  band No.  band energies     occupation 
      1       3.2871      2.00000
      2       3.6532      2.00000
      3       4.0977      2.00000
      4       5.2899      2.00000
      5       5.6642      2.00000
      6       8.8462      0.00000
      7      16.0007      0.00000
      8      16.6836      0.00000
      9      18.6571      0.00000
     10      32.6403      0.00000
     11      33.8745      0.00000
     12      37.6876      0.00000

 k-point 278 :      -0.3810    0.3810    0.1905
  band No.  band energies     occupation 
      1       3.3992      2.00000
      2       3.7169      2.00000
      3       4.0318      2.00000
      4       5.2246      2.00000
      5       5.7516      2.00000
      6      10.0325      0.00000
      7      14.6594      0.00000
      8      16.5297      0.00000
      9      17.5870      0.00000
     10      33.1249      0.00000
     11      34.6046      0.00000
     12      37.9996      0.00000

 k-point 279 :      -0.3333    0.3810    0.1905
  band No.  band energies     occupation 
      1       3.4569      2.00000
      2       3.7245      2.00000
      3       4.0302      2.00000
      4       5.1736      2.00000
      5       5.8022      2.00000
      6      11.3570      0.00000
      7      13.0713      0.00000
      8      16.5759      0.00000
      9      16.7418      0.00000
     10      33.1574      0.00000
     11      35.0882      0.00000
     12      39.0594      0.00000

 k-point 280 :      -0.3810    0.4286    0.1905
  band No.  band energies     occupation 
      1       3.2657      2.00000
      2       3.5951      2.00000
      3       4.2679      2.00000
      4       5.3114      2.00000
      5       5.8235      2.00000
      6      10.2959      0.00000
      7      15.5815      0.00000
      8      16.4332      0.00000
      9      16.6241      0.00000
     10      32.3010      0.00000
     11      34.3185      0.00000
     12      38.2629      0.00000

 k-point 281 :      -0.3333    0.4286    0.1905
  band No.  band energies     occupation 
      1       3.3350      2.00000
      2       3.6978      2.00000
      3       4.1516      2.00000
      4       5.2361      2.00000
      5       5.8693      2.00000
      6      11.5994      0.00000
      7      14.2683      0.00000
      8      16.3179      0.00000
      9      16.3310      0.00000
     10      33.0818      0.00000
     11      35.5475      0.00000
     12      37.7447      0.00000

 k-point 282 :      -0.2857    0.4286    0.1905
  band No.  band energies     occupation 
      1       3.3869      2.00000
      2       3.8025      2.00000
      3       4.0205      2.00000
      4       5.1942      2.00000
      5       5.8685      2.00000
      6      12.6525      0.00000
      7      13.0854      0.00000
      8      16.0549      0.00000
      9      16.3376      0.00000
     10      33.5298      0.00000
     11      35.9476      0.00000
     12      38.0228      0.00000

 k-point 283 :      -0.2381    0.4286    0.1905
  band No.  band energies     occupation 
      1       3.4154      2.00000
      2       3.8637      2.00000
      3       3.9162      2.00000
      4       5.1994      2.00000
      5       5.8224      2.00000
      6      11.3038      0.00000
      7      14.2150      0.00000
      8      16.0721      0.00000
      9      16.7600      0.00000
     10      33.9143      0.00000
     11      34.9465      0.00000
     12      38.2077      0.00000

 k-point 284 :      -0.3333    0.4762    0.1905
  band No.  band energies     occupation 
      1       3.2241      2.00000
      2       3.5642      2.00000
      3       4.3896      2.00000
      4       5.3021      2.00000
      5       5.9131      2.00000
      6      11.6959      0.00000
      7      15.3251      0.00000
      8      15.4851      0.00000
      9      16.2861      0.00000
     10      32.1314      0.00000
     11      34.5069      0.00000
     12      38.9326      0.00000

 k-point 285 :      -0.2857    0.4762    0.1905
  band No.  band energies     occupation 
      1       3.3049      2.00000
      2       3.6905      2.00000
      3       4.2031      2.00000
      4       5.2331      2.00000
      5       5.9126      2.00000
      6      12.6340      0.00000
      7      14.1135      0.00000
      8      15.4205      0.00000
      9      16.2787      0.00000
     10      33.0343      0.00000
     11      36.0800      0.00000
     12      37.5997      0.00000

 k-point 286 :      -0.2857    0.4762    0.2381
  band No.  band energies     occupation 
      1       3.3462      2.00000
      2       3.8503      2.00000
      3       4.0061      2.00000
      4       5.1998      2.00000
      5       5.9129      2.00000
      6      12.8638      0.00000
      7      13.9305      0.00000
      8      15.7865      0.00000
      9      16.1356      0.00000
     10      34.7715      0.00000
     11      35.5003      0.00000
     12      37.0542      0.00000


--------------------------------------------------------------------------------------------------------


 soft charge-density along one line, spin component           1
         0         1         2         3         4         5         6         7         8         9
 total charge-density along one line
 
 pseudopotential strength for first ion, spin component:           1
 -3.012   0.000   0.000   0.000   0.000  -4.633  -0.000  -0.000
  0.000  -3.012  -0.000   0.000   0.000  -0.000  -4.633   0.000
  0.000  -0.000  -2.996  -0.000  -0.000  -0.000   0.000  -4.645
  0.000   0.000  -0.000  -3.012  -0.000  -0.000  -0.000   0.000
  0.000   0.000  -0.000  -0.000  -2.996  -0.000  -0.000   0.000
 -4.633  -0.000  -0.000  -0.000  -0.000  10.226  -0.000   0.000
 -0.000  -4.633   0.000  -0.000  -0.000  -0.000  10.226  -0.000
 -0.000   0.000  -4.645   0.000   0.000   0.000  -0.000  10.235
 -0.000  -0.000   0.000  -4.633   0.000  -0.000  -0.000  -0.000
 -0.000  -0.000   0.000   0.000  -4.645   0.000   0.000  -0.000
  0.000   0.000   0.000   0.000  -0.000   0.000   0.000   0.000
  0.000   0.000   0.000   0.000  -0.000   0.000   0.000   0.000
  0.000  -0.000   0.000  -0.000   0.000  -0.000  -0.000  -0.000
 -0.000  -0.000  -0.000   0.000  -0.000  -0.000  -0.000   0.000
 -0.000  -0.000  -0.000  -0.000   0.000  -0.000  -0.000   0.000
  0.000  -0.000   0.000   0.000   0.000   0.000  -0.000  -0.000
  0.000   0.000  -0.000   0.000   0.000  -0.000  -0.000   0.000
 -0.000   0.000  -0.000  -0.000   0.000  -0.000  -0.000   0.000
 total augmentation occupancy for first ion, spin component:           1
  1.905  -0.000   0.000   0.000  -0.000  -0.016   0.000  -0.000   0.000  -0.000   0.000  -0.000   0.000   0.000   0.000   0.000
 -0.000   1.905  -0.000   0.000  -0.000  -0.000  -0.016  -0.000  -0.000   0.000  -0.000  -0.000   0.000   0.000   0.000   0.000
 -0.000  -0.000   1.925   0.000   0.000  -0.000   0.000  -0.035  -0.000  -0.000  -0.000   0.000   0.000   0.000   0.000   0.000
  0.000   0.000  -0.000   1.905  -0.000   0.000   0.000   0.000  -0.016  -0.000  -0.000   0.000   0.000   0.000   0.000   0.000
 -0.000   0.000   0.000  -0.000   1.925   0.000  -0.000   0.000  -0.000  -0.035   0.000   0.000   0.000   0.000   0.000   0.000
 -0.016  -0.000  -0.000  -0.000   0.000   0.017   0.000   0.000   0.000   0.000   0.000   0.000   0.000   0.000   0.000   0.000
  0.000  -0.016  -0.000  -0.000  -0.000   0.000   0.017   0.000   0.000   0.000   0.000  -0.000   0.000   0.000   0.000   0.000
 -0.000   0.000  -0.035   0.000   0.000   0.000  -0.000   0.016  -0.000  -0.000  -0.000   0.000   0.000   0.000   0.000   0.000
 -0.000   0.000   0.000  -0.016   0.000  -0.000   0.000   0.000   0.017   0.000   0.000   0.000   0.000   0.000   0.000   0.000
  0.000   0.000   0.000  -0.000  -0.035   0.000  -0.000   0.000   0.000   0.016   0.000   0.000   0.000   0.000   0.000   0.000
 -0.000   0.000  -0.000   0.000   0.000  -0.000   0.000  -0.000   0.000   0.000   1.777  -0.171   0.000   0.000   0.000   0.000
 -0.000  -0.000   0.000   0.000   0.000   0.000  -0.000   0.000   0.000   0.000  -0.171   0.022   0.000   0.000   0.000   0.000
  0.000   0.000   0.000   0.000   0.000   0.000   0.000   0.000   0.000   0.000   0.000   0.000   0.234  -0.000  -0.000  -0.016
  0.000   0.000   0.000   0.000   0.000   0.000   0.000   0.000   0.000   0.000   0.000   0.000  -0.000   0.234   0.000   0.000
  0.000   0.000   0.000   0.000   0.000   0.000   0.000   0.000   0.000   0.000   0.000   0.000  -0.000   0.000   0.234   0.000
  0.000   0.000   0.000   0.000   0.000   0.000   0.000   0.000   0.000   0.000   0.000   0.000  -0.016   0.000   0.000   0.001
  0.000   0.000   0.000   0.000   0.000   0.000   0.000   0.000   0.000   0.000   0.000   0.000   0.000  -0.016   0.000   0.000
  0.000   0.000   0.000   0.000   0.000   0.000   0.000   0.000   0.000   0.000   0.000   0.000   0.000  -0.000  -0.016   0.000


------------------------ aborting loop because EDIFF is reached ----------------------------------------


    CHARGE:  cpu time    0.01: real time    0.01
    FORLOC:  cpu time    0.00: real time    0.00
    FORNL :  cpu time    0.02: real time    0.02
    STRESS:  cpu time    0.08: real time    0.08
    FORCOR:  cpu time    0.00: real time    0.00
    FORHAR:  cpu time    0.00: real time    0.00
    MIXING:  cpu time    0.00: real time    0.00

  FORCE on cell =-STRESS in cart. coord.  units (eV):
  Direction    XX          YY          ZZ          XY          YZ          ZX
  --------------------------------------------------------------------------------------
  Alpha Z    61.05942    61.05942    61.05942
  Ewald    -366.58664  -366.58664  -366.58664     0.00000     0.00000    -0.00000
  Hartree   113.80645   113.80645   113.80645     0.00000     0.00000     0.00000
  E(xc)     -64.31249   -64.31249   -64.31249    -0.00002    -0.00002    -0.00002
  Local      92.72484    92.72484    92.72484     0.00054     0.00054     0.00054
  n-local   -21.22595   -20.18926   -22.35901     1.71346    -1.53687     1.03562
  augment    94.84002    94.84002    94.84002    -0.00052    -0.00052    -0.00052
  Kinetic    88.73494    88.15673    92.28650    -1.91948     2.71038    -2.24417
  Fock        0.00000     0.00000     0.00000     0.00000     0.00000     0.00000
  -------------------------------------------------------------------------------------
  Total      -0.00042    -0.00042    -0.00042    -0.00000     0.00000     0.00000
  in kB      -0.05624    -0.05624    -0.05624    -0.00000     0.00000     0.00000
  external pressure =       -0.06 kB  Pullay stress =        0.00 kB


 VOLUME and BASIS-vectors are now :
 -----------------------------------------------------------------------------
  energy-cutoff  :      369.31
  volume of cell :       11.98
      direct lattice vectors                 reciprocal lattice vectors
     0.000000000  1.815974972  1.815974972    -0.275334191  0.275334191  0.275334191
     1.815974972  0.000000000  1.815974972     0.275334191 -0.275334191  0.275334191
     1.815974972  1.815974972  0.000000000     0.275334191  0.275334191 -0.275334191

  length of vectors
     2.568176435  2.568176435  2.568176435     0.476892808  0.476892808  0.476892808


 FORCES acting on ions
    electron-ion (+dipol)            ewald-force                    non-local-force                 convergence-correction
 -----------------------------------------------------------------------------------------------
   -.356E-13 -.320E-13 0.240E-14   0.164E-14 -.130E-14 0.221E-14   0.397E-22 0.132E-22 0.132E-22   0.290E-15 -.173E-13 0.192E-13
 -----------------------------------------------------------------------------------------------
   -.356E-13 -.320E-13 0.240E-14   0.164E-14 -.130E-14 0.221E-14   0.397E-22 0.132E-22 0.132E-22   0.290E-15 -.173E-13 0.192E-13
 
 
 POSITION                                       TOTAL-FORCE (eV/Angst)
 -----------------------------------------------------------------------------------
      0.00000      0.00000      0.00000        -0.000000     -0.000000     -0.000000
 -----------------------------------------------------------------------------------
    total drift:                               -0.000000     -0.000000      0.000000


--------------------------------------------------------------------------------------------------------



  FREE ENERGIE OF THE ION-ELECTRON SYSTEM (eV)
  ---------------------------------------------------
  free  energy   TOTEN  =        -3.731046 eV

  energy  without entropy=       -3.728879  energy(sigma->0) =       -3.729962
 


--------------------------------------------------------------------------------------------------------


    POTLOK:  cpu time    0.00: real time    0.00


--------------------------------------------------------------------------------------------------------




--------------------------------------------------------------------------------------------------------


  
 reached required accuracy - stopping structural energy minimisation
     LOOP+:  cpu time    4.79: real time    4.80
    4ORBIT:  cpu time    0.00: real time    0.00

 total amount of memory used by VASP on root node    33352. kBytes
========================================================================

   base      :      30000. kBytes
   nonl-proj :       2142. kBytes
   fftplans  :         87. kBytes
   grid      :        120. kBytes
   one-center:         15. kBytes
   wavefun   :        988. kBytes
 
  
  
 General timing and accounting informations for this job:
 ========================================================
  
                  Total CPU time used (sec):        5.276
                            User time (sec):        5.182
                          System time (sec):        0.094
                         Elapsed time (sec):        5.434
  
                   Maximum memory used (kb):       36044.
                   Average memory used (kb):           0.
  
                          Minor page faults:         9876
                          Major page faults:           10
                 Voluntary context switches:          988
